+ 0.1 1 2 cbr 1000 ------- 2 1.0 3.1 0 0
- 0.1 1 2 cbr 1000 ------- 2 1.0 3.1 0 0
+ 0.108 1 2 cbr 1000 ------- 2 1.0 3.1 1 1
- 0.108 1 2 cbr 1000 ------- 2 1.0 3.1 1 1
r 0.114 1 2 cbr 1000 ------- 2 1.0 3.1 0 0
+ 0.114 2 3 cbr 1000 ------- 2 1.0 3.1 0 0
- 0.114 2 3 cbr 1000 ------- 2 1.0 3.1 0 0
+ 0.116 1 2 cbr 1000 ------- 2 1.0 3.1 2 2
- 0.116 1 2 cbr 1000 ------- 2 1.0 3.1 2 2
r 0.122 1 2 cbr 1000 ------- 2 1.0 3.1 1 1
+ 0.122 2 3 cbr 1000 ------- 2 1.0 3.1 1 1
- 0.122 2 3 cbr 1000 ------- 2 1.0 3.1 1 1
+ 0.124 1 2 cbr 1000 ------- 2 1.0 3.1 3 3
- 0.124 1 2 cbr 1000 ------- 2 1.0 3.1 3 3
r 0.13 1 2 cbr 1000 ------- 2 1.0 3.1 2 2
+ 0.13 2 3 cbr 1000 ------- 2 1.0 3.1 2 2
- 0.13 2 3 cbr 1000 ------- 2 1.0 3.1 2 2
+ 0.132 1 2 cbr 1000 ------- 2 1.0 3.1 4 4
- 0.132 1 2 cbr 1000 ------- 2 1.0 3.1 4 4
r 0.138 2 3 cbr 1000 ------- 2 1.0 3.1 0 0
r 0.138 1 2 cbr 1000 ------- 2 1.0 3.1 3 3
+ 0.138 2 3 cbr 1000 ------- 2 1.0 3.1 3 3
- 0.138 2 3 cbr 1000 ------- 2 1.0 3.1 3 3
+ 0.14 1 2 cbr 1000 ------- 2 1.0 3.1 5 5
- 0.14 1 2 cbr 1000 ------- 2 1.0 3.1 5 5
r 0.146 2 3 cbr 1000 ------- 2 1.0 3.1 1 1
r 0.146 1 2 cbr 1000 ------- 2 1.0 3.1 4 4
+ 0.146 2 3 cbr 1000 ------- 2 1.0 3.1 4 4
- 0.146 2 3 cbr 1000 ------- 2 1.0 3.1 4 4
+ 0.148 1 2 cbr 1000 ------- 2 1.0 3.1 6 6
- 0.148 1 2 cbr 1000 ------- 2 1.0 3.1 6 6
r 0.154 2 3 cbr 1000 ------- 2 1.0 3.1 2 2
r 0.154 1 2 cbr 1000 ------- 2 1.0 3.1 5 5
+ 0.154 2 3 cbr 1000 ------- 2 1.0 3.1 5 5
- 0.154 2 3 cbr 1000 ------- 2 1.0 3.1 5 5
+ 0.156 1 2 cbr 1000 ------- 2 1.0 3.1 7 7
- 0.156 1 2 cbr 1000 ------- 2 1.0 3.1 7 7
r 0.162 2 3 cbr 1000 ------- 2 1.0 3.1 3 3
r 0.162 1 2 cbr 1000 ------- 2 1.0 3.1 6 6
+ 0.162 2 3 cbr 1000 ------- 2 1.0 3.1 6 6
- 0.162 2 3 cbr 1000 ------- 2 1.0 3.1 6 6
+ 0.164 1 2 cbr 1000 ------- 2 1.0 3.1 8 8
- 0.164 1 2 cbr 1000 ------- 2 1.0 3.1 8 8
r 0.17 2 3 cbr 1000 ------- 2 1.0 3.1 4 4
r 0.17 1 2 cbr 1000 ------- 2 1.0 3.1 7 7
+ 0.17 2 3 cbr 1000 ------- 2 1.0 3.1 7 7
- 0.17 2 3 cbr 1000 ------- 2 1.0 3.1 7 7
+ 0.172 1 2 cbr 1000 ------- 2 1.0 3.1 9 9
- 0.172 1 2 cbr 1000 ------- 2 1.0 3.1 9 9
r 0.178 2 3 cbr 1000 ------- 2 1.0 3.1 5 5
r 0.178 1 2 cbr 1000 ------- 2 1.0 3.1 8 8
+ 0.178 2 3 cbr 1000 ------- 2 1.0 3.1 8 8
- 0.178 2 3 cbr 1000 ------- 2 1.0 3.1 8 8
+ 0.18 1 2 cbr 1000 ------- 2 1.0 3.1 10 10
- 0.18 1 2 cbr 1000 ------- 2 1.0 3.1 10 10
r 0.186 2 3 cbr 1000 ------- 2 1.0 3.1 6 6
r 0.186 1 2 cbr 1000 ------- 2 1.0 3.1 9 9
+ 0.186 2 3 cbr 1000 ------- 2 1.0 3.1 9 9
- 0.186 2 3 cbr 1000 ------- 2 1.0 3.1 9 9
+ 0.188 1 2 cbr 1000 ------- 2 1.0 3.1 11 11
- 0.188 1 2 cbr 1000 ------- 2 1.0 3.1 11 11
r 0.194 2 3 cbr 1000 ------- 2 1.0 3.1 7 7
r 0.194 1 2 cbr 1000 ------- 2 1.0 3.1 10 10
+ 0.194 2 3 cbr 1000 ------- 2 1.0 3.1 10 10
- 0.194 2 3 cbr 1000 ------- 2 1.0 3.1 10 10
+ 0.196 1 2 cbr 1000 ------- 2 1.0 3.1 12 12
- 0.196 1 2 cbr 1000 ------- 2 1.0 3.1 12 12
r 0.202 2 3 cbr 1000 ------- 2 1.0 3.1 8 8
r 0.202 1 2 cbr 1000 ------- 2 1.0 3.1 11 11
+ 0.202 2 3 cbr 1000 ------- 2 1.0 3.1 11 11
- 0.202 2 3 cbr 1000 ------- 2 1.0 3.1 11 11
+ 0.204 1 2 cbr 1000 ------- 2 1.0 3.1 13 13
- 0.204 1 2 cbr 1000 ------- 2 1.0 3.1 13 13
r 0.21 2 3 cbr 1000 ------- 2 1.0 3.1 9 9
r 0.21 1 2 cbr 1000 ------- 2 1.0 3.1 12 12
+ 0.21 2 3 cbr 1000 ------- 2 1.0 3.1 12 12
- 0.21 2 3 cbr 1000 ------- 2 1.0 3.1 12 12
+ 0.212 1 2 cbr 1000 ------- 2 1.0 3.1 14 14
- 0.212 1 2 cbr 1000 ------- 2 1.0 3.1 14 14
r 0.218 2 3 cbr 1000 ------- 2 1.0 3.1 10 10
r 0.218 1 2 cbr 1000 ------- 2 1.0 3.1 13 13
+ 0.218 2 3 cbr 1000 ------- 2 1.0 3.1 13 13
- 0.218 2 3 cbr 1000 ------- 2 1.0 3.1 13 13
+ 0.22 1 2 cbr 1000 ------- 2 1.0 3.1 15 15
- 0.22 1 2 cbr 1000 ------- 2 1.0 3.1 15 15
r 0.226 2 3 cbr 1000 ------- 2 1.0 3.1 11 11
r 0.226 1 2 cbr 1000 ------- 2 1.0 3.1 14 14
+ 0.226 2 3 cbr 1000 ------- 2 1.0 3.1 14 14
- 0.226 2 3 cbr 1000 ------- 2 1.0 3.1 14 14
+ 0.228 1 2 cbr 1000 ------- 2 1.0 3.1 16 16
- 0.228 1 2 cbr 1000 ------- 2 1.0 3.1 16 16
r 0.234 2 3 cbr 1000 ------- 2 1.0 3.1 12 12
r 0.234 1 2 cbr 1000 ------- 2 1.0 3.1 15 15
+ 0.234 2 3 cbr 1000 ------- 2 1.0 3.1 15 15
- 0.234 2 3 cbr 1000 ------- 2 1.0 3.1 15 15
+ 0.236 1 2 cbr 1000 ------- 2 1.0 3.1 17 17
- 0.236 1 2 cbr 1000 ------- 2 1.0 3.1 17 17
r 0.242 2 3 cbr 1000 ------- 2 1.0 3.1 13 13
r 0.242 1 2 cbr 1000 ------- 2 1.0 3.1 16 16
+ 0.242 2 3 cbr 1000 ------- 2 1.0 3.1 16 16
- 0.242 2 3 cbr 1000 ------- 2 1.0 3.1 16 16
+ 0.244 1 2 cbr 1000 ------- 2 1.0 3.1 18 18
- 0.244 1 2 cbr 1000 ------- 2 1.0 3.1 18 18
r 0.25 2 3 cbr 1000 ------- 2 1.0 3.1 14 14
r 0.25 1 2 cbr 1000 ------- 2 1.0 3.1 17 17
+ 0.25 2 3 cbr 1000 ------- 2 1.0 3.1 17 17
- 0.25 2 3 cbr 1000 ------- 2 1.0 3.1 17 17
+ 0.252 1 2 cbr 1000 ------- 2 1.0 3.1 19 19
- 0.252 1 2 cbr 1000 ------- 2 1.0 3.1 19 19
r 0.258 2 3 cbr 1000 ------- 2 1.0 3.1 15 15
r 0.258 1 2 cbr 1000 ------- 2 1.0 3.1 18 18
+ 0.258 2 3 cbr 1000 ------- 2 1.0 3.1 18 18
- 0.258 2 3 cbr 1000 ------- 2 1.0 3.1 18 18
+ 0.26 1 2 cbr 1000 ------- 2 1.0 3.1 20 20
- 0.26 1 2 cbr 1000 ------- 2 1.0 3.1 20 20
r 0.266 2 3 cbr 1000 ------- 2 1.0 3.1 16 16
r 0.266 1 2 cbr 1000 ------- 2 1.0 3.1 19 19
+ 0.266 2 3 cbr 1000 ------- 2 1.0 3.1 19 19
- 0.266 2 3 cbr 1000 ------- 2 1.0 3.1 19 19
+ 0.268 1 2 cbr 1000 ------- 2 1.0 3.1 21 21
- 0.268 1 2 cbr 1000 ------- 2 1.0 3.1 21 21
r 0.274 2 3 cbr 1000 ------- 2 1.0 3.1 17 17
r 0.274 1 2 cbr 1000 ------- 2 1.0 3.1 20 20
+ 0.274 2 3 cbr 1000 ------- 2 1.0 3.1 20 20
- 0.274 2 3 cbr 1000 ------- 2 1.0 3.1 20 20
+ 0.276 1 2 cbr 1000 ------- 2 1.0 3.1 22 22
- 0.276 1 2 cbr 1000 ------- 2 1.0 3.1 22 22
r 0.282 2 3 cbr 1000 ------- 2 1.0 3.1 18 18
r 0.282 1 2 cbr 1000 ------- 2 1.0 3.1 21 21
+ 0.282 2 3 cbr 1000 ------- 2 1.0 3.1 21 21
- 0.282 2 3 cbr 1000 ------- 2 1.0 3.1 21 21
+ 0.284 1 2 cbr 1000 ------- 2 1.0 3.1 23 23
- 0.284 1 2 cbr 1000 ------- 2 1.0 3.1 23 23
r 0.29 2 3 cbr 1000 ------- 2 1.0 3.1 19 19
r 0.29 1 2 cbr 1000 ------- 2 1.0 3.1 22 22
+ 0.29 2 3 cbr 1000 ------- 2 1.0 3.1 22 22
- 0.29 2 3 cbr 1000 ------- 2 1.0 3.1 22 22
+ 0.292 1 2 cbr 1000 ------- 2 1.0 3.1 24 24
- 0.292 1 2 cbr 1000 ------- 2 1.0 3.1 24 24
r 0.298 2 3 cbr 1000 ------- 2 1.0 3.1 20 20
r 0.298 1 2 cbr 1000 ------- 2 1.0 3.1 23 23
+ 0.298 2 3 cbr 1000 ------- 2 1.0 3.1 23 23
- 0.298 2 3 cbr 1000 ------- 2 1.0 3.1 23 23
+ 0.3 1 2 cbr 1000 ------- 2 1.0 3.1 25 25
- 0.3 1 2 cbr 1000 ------- 2 1.0 3.1 25 25
r 0.306 2 3 cbr 1000 ------- 2 1.0 3.1 21 21
r 0.306 1 2 cbr 1000 ------- 2 1.0 3.1 24 24
+ 0.306 2 3 cbr 1000 ------- 2 1.0 3.1 24 24
- 0.306 2 3 cbr 1000 ------- 2 1.0 3.1 24 24
+ 0.308 1 2 cbr 1000 ------- 2 1.0 3.1 26 26
- 0.308 1 2 cbr 1000 ------- 2 1.0 3.1 26 26
r 0.314 2 3 cbr 1000 ------- 2 1.0 3.1 22 22
r 0.314 1 2 cbr 1000 ------- 2 1.0 3.1 25 25
+ 0.314 2 3 cbr 1000 ------- 2 1.0 3.1 25 25
- 0.314 2 3 cbr 1000 ------- 2 1.0 3.1 25 25
+ 0.316 1 2 cbr 1000 ------- 2 1.0 3.1 27 27
- 0.316 1 2 cbr 1000 ------- 2 1.0 3.1 27 27
r 0.322 2 3 cbr 1000 ------- 2 1.0 3.1 23 23
r 0.322 1 2 cbr 1000 ------- 2 1.0 3.1 26 26
+ 0.322 2 3 cbr 1000 ------- 2 1.0 3.1 26 26
- 0.322 2 3 cbr 1000 ------- 2 1.0 3.1 26 26
+ 0.324 1 2 cbr 1000 ------- 2 1.0 3.1 28 28
- 0.324 1 2 cbr 1000 ------- 2 1.0 3.1 28 28
r 0.33 2 3 cbr 1000 ------- 2 1.0 3.1 24 24
r 0.33 1 2 cbr 1000 ------- 2 1.0 3.1 27 27
+ 0.33 2 3 cbr 1000 ------- 2 1.0 3.1 27 27
- 0.33 2 3 cbr 1000 ------- 2 1.0 3.1 27 27
+ 0.332 1 2 cbr 1000 ------- 2 1.0 3.1 29 29
- 0.332 1 2 cbr 1000 ------- 2 1.0 3.1 29 29
r 0.338 2 3 cbr 1000 ------- 2 1.0 3.1 25 25
r 0.338 1 2 cbr 1000 ------- 2 1.0 3.1 28 28
+ 0.338 2 3 cbr 1000 ------- 2 1.0 3.1 28 28
- 0.338 2 3 cbr 1000 ------- 2 1.0 3.1 28 28
+ 0.34 1 2 cbr 1000 ------- 2 1.0 3.1 30 30
- 0.34 1 2 cbr 1000 ------- 2 1.0 3.1 30 30
r 0.346 2 3 cbr 1000 ------- 2 1.0 3.1 26 26
r 0.346 1 2 cbr 1000 ------- 2 1.0 3.1 29 29
+ 0.346 2 3 cbr 1000 ------- 2 1.0 3.1 29 29
- 0.346 2 3 cbr 1000 ------- 2 1.0 3.1 29 29
+ 0.348 1 2 cbr 1000 ------- 2 1.0 3.1 31 31
- 0.348 1 2 cbr 1000 ------- 2 1.0 3.1 31 31
r 0.354 2 3 cbr 1000 ------- 2 1.0 3.1 27 27
r 0.354 1 2 cbr 1000 ------- 2 1.0 3.1 30 30
+ 0.354 2 3 cbr 1000 ------- 2 1.0 3.1 30 30
- 0.354 2 3 cbr 1000 ------- 2 1.0 3.1 30 30
+ 0.356 1 2 cbr 1000 ------- 2 1.0 3.1 32 32
- 0.356 1 2 cbr 1000 ------- 2 1.0 3.1 32 32
r 0.362 2 3 cbr 1000 ------- 2 1.0 3.1 28 28
r 0.362 1 2 cbr 1000 ------- 2 1.0 3.1 31 31
+ 0.362 2 3 cbr 1000 ------- 2 1.0 3.1 31 31
- 0.362 2 3 cbr 1000 ------- 2 1.0 3.1 31 31
+ 0.364 1 2 cbr 1000 ------- 2 1.0 3.1 33 33
- 0.364 1 2 cbr 1000 ------- 2 1.0 3.1 33 33
r 0.37 2 3 cbr 1000 ------- 2 1.0 3.1 29 29
r 0.37 1 2 cbr 1000 ------- 2 1.0 3.1 32 32
+ 0.37 2 3 cbr 1000 ------- 2 1.0 3.1 32 32
- 0.37 2 3 cbr 1000 ------- 2 1.0 3.1 32 32
+ 0.372 1 2 cbr 1000 ------- 2 1.0 3.1 34 34
- 0.372 1 2 cbr 1000 ------- 2 1.0 3.1 34 34
r 0.378 2 3 cbr 1000 ------- 2 1.0 3.1 30 30
r 0.378 1 2 cbr 1000 ------- 2 1.0 3.1 33 33
+ 0.378 2 3 cbr 1000 ------- 2 1.0 3.1 33 33
- 0.378 2 3 cbr 1000 ------- 2 1.0 3.1 33 33
+ 0.38 1 2 cbr 1000 ------- 2 1.0 3.1 35 35
- 0.38 1 2 cbr 1000 ------- 2 1.0 3.1 35 35
r 0.386 2 3 cbr 1000 ------- 2 1.0 3.1 31 31
r 0.386 1 2 cbr 1000 ------- 2 1.0 3.1 34 34
+ 0.386 2 3 cbr 1000 ------- 2 1.0 3.1 34 34
- 0.386 2 3 cbr 1000 ------- 2 1.0 3.1 34 34
+ 0.388 1 2 cbr 1000 ------- 2 1.0 3.1 36 36
- 0.388 1 2 cbr 1000 ------- 2 1.0 3.1 36 36
r 0.394 2 3 cbr 1000 ------- 2 1.0 3.1 32 32
r 0.394 1 2 cbr 1000 ------- 2 1.0 3.1 35 35
+ 0.394 2 3 cbr 1000 ------- 2 1.0 3.1 35 35
- 0.394 2 3 cbr 1000 ------- 2 1.0 3.1 35 35
+ 0.396 1 2 cbr 1000 ------- 2 1.0 3.1 37 37
- 0.396 1 2 cbr 1000 ------- 2 1.0 3.1 37 37
r 0.402 2 3 cbr 1000 ------- 2 1.0 3.1 33 33
r 0.402 1 2 cbr 1000 ------- 2 1.0 3.1 36 36
+ 0.402 2 3 cbr 1000 ------- 2 1.0 3.1 36 36
- 0.402 2 3 cbr 1000 ------- 2 1.0 3.1 36 36
+ 0.404 1 2 cbr 1000 ------- 2 1.0 3.1 38 38
- 0.404 1 2 cbr 1000 ------- 2 1.0 3.1 38 38
r 0.41 2 3 cbr 1000 ------- 2 1.0 3.1 34 34
r 0.41 1 2 cbr 1000 ------- 2 1.0 3.1 37 37
+ 0.41 2 3 cbr 1000 ------- 2 1.0 3.1 37 37
- 0.41 2 3 cbr 1000 ------- 2 1.0 3.1 37 37
+ 0.412 1 2 cbr 1000 ------- 2 1.0 3.1 39 39
- 0.412 1 2 cbr 1000 ------- 2 1.0 3.1 39 39
r 0.418 2 3 cbr 1000 ------- 2 1.0 3.1 35 35
r 0.418 1 2 cbr 1000 ------- 2 1.0 3.1 38 38
+ 0.418 2 3 cbr 1000 ------- 2 1.0 3.1 38 38
- 0.418 2 3 cbr 1000 ------- 2 1.0 3.1 38 38
+ 0.42 1 2 cbr 1000 ------- 2 1.0 3.1 40 40
- 0.42 1 2 cbr 1000 ------- 2 1.0 3.1 40 40
r 0.426 2 3 cbr 1000 ------- 2 1.0 3.1 36 36
r 0.426 1 2 cbr 1000 ------- 2 1.0 3.1 39 39
+ 0.426 2 3 cbr 1000 ------- 2 1.0 3.1 39 39
- 0.426 2 3 cbr 1000 ------- 2 1.0 3.1 39 39
+ 0.428 1 2 cbr 1000 ------- 2 1.0 3.1 41 41
- 0.428 1 2 cbr 1000 ------- 2 1.0 3.1 41 41
r 0.434 2 3 cbr 1000 ------- 2 1.0 3.1 37 37
r 0.434 1 2 cbr 1000 ------- 2 1.0 3.1 40 40
+ 0.434 2 3 cbr 1000 ------- 2 1.0 3.1 40 40
- 0.434 2 3 cbr 1000 ------- 2 1.0 3.1 40 40
+ 0.436 1 2 cbr 1000 ------- 2 1.0 3.1 42 42
- 0.436 1 2 cbr 1000 ------- 2 1.0 3.1 42 42
r 0.442 2 3 cbr 1000 ------- 2 1.0 3.1 38 38
r 0.442 1 2 cbr 1000 ------- 2 1.0 3.1 41 41
+ 0.442 2 3 cbr 1000 ------- 2 1.0 3.1 41 41
- 0.442 2 3 cbr 1000 ------- 2 1.0 3.1 41 41
+ 0.444 1 2 cbr 1000 ------- 2 1.0 3.1 43 43
- 0.444 1 2 cbr 1000 ------- 2 1.0 3.1 43 43
r 0.45 2 3 cbr 1000 ------- 2 1.0 3.1 39 39
r 0.45 1 2 cbr 1000 ------- 2 1.0 3.1 42 42
+ 0.45 2 3 cbr 1000 ------- 2 1.0 3.1 42 42
- 0.45 2 3 cbr 1000 ------- 2 1.0 3.1 42 42
+ 0.452 1 2 cbr 1000 ------- 2 1.0 3.1 44 44
- 0.452 1 2 cbr 1000 ------- 2 1.0 3.1 44 44
r 0.458 2 3 cbr 1000 ------- 2 1.0 3.1 40 40
r 0.458 1 2 cbr 1000 ------- 2 1.0 3.1 43 43
+ 0.458 2 3 cbr 1000 ------- 2 1.0 3.1 43 43
- 0.458 2 3 cbr 1000 ------- 2 1.0 3.1 43 43
+ 0.46 1 2 cbr 1000 ------- 2 1.0 3.1 45 45
- 0.46 1 2 cbr 1000 ------- 2 1.0 3.1 45 45
r 0.466 2 3 cbr 1000 ------- 2 1.0 3.1 41 41
r 0.466 1 2 cbr 1000 ------- 2 1.0 3.1 44 44
+ 0.466 2 3 cbr 1000 ------- 2 1.0 3.1 44 44
- 0.466 2 3 cbr 1000 ------- 2 1.0 3.1 44 44
+ 0.468 1 2 cbr 1000 ------- 2 1.0 3.1 46 46
- 0.468 1 2 cbr 1000 ------- 2 1.0 3.1 46 46
r 0.474 2 3 cbr 1000 ------- 2 1.0 3.1 42 42
r 0.474 1 2 cbr 1000 ------- 2 1.0 3.1 45 45
+ 0.474 2 3 cbr 1000 ------- 2 1.0 3.1 45 45
- 0.474 2 3 cbr 1000 ------- 2 1.0 3.1 45 45
+ 0.476 1 2 cbr 1000 ------- 2 1.0 3.1 47 47
- 0.476 1 2 cbr 1000 ------- 2 1.0 3.1 47 47
r 0.482 2 3 cbr 1000 ------- 2 1.0 3.1 43 43
r 0.482 1 2 cbr 1000 ------- 2 1.0 3.1 46 46
+ 0.482 2 3 cbr 1000 ------- 2 1.0 3.1 46 46
- 0.482 2 3 cbr 1000 ------- 2 1.0 3.1 46 46
+ 0.484 1 2 cbr 1000 ------- 2 1.0 3.1 48 48
- 0.484 1 2 cbr 1000 ------- 2 1.0 3.1 48 48
r 0.49 2 3 cbr 1000 ------- 2 1.0 3.1 44 44
r 0.49 1 2 cbr 1000 ------- 2 1.0 3.1 47 47
+ 0.49 2 3 cbr 1000 ------- 2 1.0 3.1 47 47
- 0.49 2 3 cbr 1000 ------- 2 1.0 3.1 47 47
+ 0.492 1 2 cbr 1000 ------- 2 1.0 3.1 49 49
- 0.492 1 2 cbr 1000 ------- 2 1.0 3.1 49 49
r 0.498 2 3 cbr 1000 ------- 2 1.0 3.1 45 45
r 0.498 1 2 cbr 1000 ------- 2 1.0 3.1 48 48
+ 0.498 2 3 cbr 1000 ------- 2 1.0 3.1 48 48
- 0.498 2 3 cbr 1000 ------- 2 1.0 3.1 48 48
+ 0.5 0 2 tcp 40 ------- 1 0.0 3.0 0 50
- 0.5 0 2 tcp 40 ------- 1 0.0 3.0 0 50
+ 0.5 1 2 cbr 1000 ------- 2 1.0 3.1 50 51
- 0.5 1 2 cbr 1000 ------- 2 1.0 3.1 50 51
r 0.506 2 3 cbr 1000 ------- 2 1.0 3.1 46 46
r 0.506 1 2 cbr 1000 ------- 2 1.0 3.1 49 49
+ 0.506 2 3 cbr 1000 ------- 2 1.0 3.1 49 49
- 0.506 2 3 cbr 1000 ------- 2 1.0 3.1 49 49
+ 0.508 1 2 cbr 1000 ------- 2 1.0 3.1 51 52
- 0.508 1 2 cbr 1000 ------- 2 1.0 3.1 51 52
r 0.51016 0 2 tcp 40 ------- 1 0.0 3.0 0 50
+ 0.51016 2 3 tcp 40 ------- 1 0.0 3.0 0 50
- 0.51016 2 3 tcp 40 ------- 1 0.0 3.0 0 50
r 0.514 2 3 cbr 1000 ------- 2 1.0 3.1 47 47
r 0.514 1 2 cbr 1000 ------- 2 1.0 3.1 50 51
+ 0.514 2 3 cbr 1000 ------- 2 1.0 3.1 50 51
- 0.514 2 3 cbr 1000 ------- 2 1.0 3.1 50 51
+ 0.516 1 2 cbr 1000 ------- 2 1.0 3.1 52 53
- 0.516 1 2 cbr 1000 ------- 2 1.0 3.1 52 53
r 0.522 2 3 cbr 1000 ------- 2 1.0 3.1 48 48
r 0.522 1 2 cbr 1000 ------- 2 1.0 3.1 51 52
+ 0.522 2 3 cbr 1000 ------- 2 1.0 3.1 51 52
- 0.522 2 3 cbr 1000 ------- 2 1.0 3.1 51 52
+ 0.524 1 2 cbr 1000 ------- 2 1.0 3.1 53 54
- 0.524 1 2 cbr 1000 ------- 2 1.0 3.1 53 54
r 0.53 2 3 cbr 1000 ------- 2 1.0 3.1 49 49
r 0.53 1 2 cbr 1000 ------- 2 1.0 3.1 52 53
+ 0.53 2 3 cbr 1000 ------- 2 1.0 3.1 52 53
- 0.53 2 3 cbr 1000 ------- 2 1.0 3.1 52 53
r 0.53032 2 3 tcp 40 ------- 1 0.0 3.0 0 50
+ 0.53032 3 2 ack 40 ------- 1 3.0 0.0 0 55
- 0.53032 3 2 ack 40 ------- 1 3.0 0.0 0 55
+ 0.532 1 2 cbr 1000 ------- 2 1.0 3.1 54 56
- 0.532 1 2 cbr 1000 ------- 2 1.0 3.1 54 56
r 0.538 2 3 cbr 1000 ------- 2 1.0 3.1 50 51
r 0.538 1 2 cbr 1000 ------- 2 1.0 3.1 53 54
+ 0.538 2 3 cbr 1000 ------- 2 1.0 3.1 53 54
- 0.538 2 3 cbr 1000 ------- 2 1.0 3.1 53 54
+ 0.54 1 2 cbr 1000 ------- 2 1.0 3.1 55 57
- 0.54 1 2 cbr 1000 ------- 2 1.0 3.1 55 57
r 0.546 2 3 cbr 1000 ------- 2 1.0 3.1 51 52
r 0.546 1 2 cbr 1000 ------- 2 1.0 3.1 54 56
+ 0.546 2 3 cbr 1000 ------- 2 1.0 3.1 54 56
- 0.546 2 3 cbr 1000 ------- 2 1.0 3.1 54 56
+ 0.548 1 2 cbr 1000 ------- 2 1.0 3.1 56 58
- 0.548 1 2 cbr 1000 ------- 2 1.0 3.1 56 58
r 0.55048 3 2 ack 40 ------- 1 3.0 0.0 0 55
+ 0.55048 2 0 ack 40 ------- 1 3.0 0.0 0 55
- 0.55048 2 0 ack 40 ------- 1 3.0 0.0 0 55
r 0.554 2 3 cbr 1000 ------- 2 1.0 3.1 52 53
r 0.554 1 2 cbr 1000 ------- 2 1.0 3.1 55 57
+ 0.554 2 3 cbr 1000 ------- 2 1.0 3.1 55 57
- 0.554 2 3 cbr 1000 ------- 2 1.0 3.1 55 57
+ 0.556 1 2 cbr 1000 ------- 2 1.0 3.1 57 59
- 0.556 1 2 cbr 1000 ------- 2 1.0 3.1 57 59
r 0.56064 2 0 ack 40 ------- 1 3.0 0.0 0 55
+ 0.56064 0 2 tcp 1040 ------- 1 0.0 3.0 1 60
- 0.56064 0 2 tcp 1040 ------- 1 0.0 3.0 1 60
+ 0.56064 0 2 tcp 1040 ------- 1 0.0 3.0 2 61
r 0.562 2 3 cbr 1000 ------- 2 1.0 3.1 53 54
r 0.562 1 2 cbr 1000 ------- 2 1.0 3.1 56 58
+ 0.562 2 3 cbr 1000 ------- 2 1.0 3.1 56 58
- 0.562 2 3 cbr 1000 ------- 2 1.0 3.1 56 58
+ 0.564 1 2 cbr 1000 ------- 2 1.0 3.1 58 62
- 0.564 1 2 cbr 1000 ------- 2 1.0 3.1 58 62
- 0.5648 0 2 tcp 1040 ------- 1 0.0 3.0 2 61
r 0.57 2 3 cbr 1000 ------- 2 1.0 3.1 54 56
r 0.57 1 2 cbr 1000 ------- 2 1.0 3.1 57 59
+ 0.57 2 3 cbr 1000 ------- 2 1.0 3.1 57 59
- 0.57 2 3 cbr 1000 ------- 2 1.0 3.1 57 59
+ 0.572 1 2 cbr 1000 ------- 2 1.0 3.1 59 63
- 0.572 1 2 cbr 1000 ------- 2 1.0 3.1 59 63
r 0.5748 0 2 tcp 1040 ------- 1 0.0 3.0 1 60
+ 0.5748 2 3 tcp 1040 ------- 1 0.0 3.0 1 60
- 0.5748 2 3 tcp 1040 ------- 1 0.0 3.0 1 60
r 0.578 2 3 cbr 1000 ------- 2 1.0 3.1 55 57
r 0.578 1 2 cbr 1000 ------- 2 1.0 3.1 58 62
+ 0.578 2 3 cbr 1000 ------- 2 1.0 3.1 58 62
r 0.57896 0 2 tcp 1040 ------- 1 0.0 3.0 2 61
+ 0.57896 2 3 tcp 1040 ------- 1 0.0 3.0 2 61
- 0.57896 2 3 cbr 1000 ------- 2 1.0 3.1 58 62
+ 0.58 1 2 cbr 1000 ------- 2 1.0 3.1 60 64
- 0.58 1 2 cbr 1000 ------- 2 1.0 3.1 60 64
- 0.58296 2 3 tcp 1040 ------- 1 0.0 3.0 2 61
r 0.586 2 3 cbr 1000 ------- 2 1.0 3.1 56 58
r 0.586 1 2 cbr 1000 ------- 2 1.0 3.1 59 63
+ 0.586 2 3 cbr 1000 ------- 2 1.0 3.1 59 63
- 0.58712 2 3 cbr 1000 ------- 2 1.0 3.1 59 63
+ 0.588 1 2 cbr 1000 ------- 2 1.0 3.1 61 65
- 0.588 1 2 cbr 1000 ------- 2 1.0 3.1 61 65
r 0.594 2 3 cbr 1000 ------- 2 1.0 3.1 57 59
r 0.594 1 2 cbr 1000 ------- 2 1.0 3.1 60 64
+ 0.594 2 3 cbr 1000 ------- 2 1.0 3.1 60 64
- 0.594 2 3 cbr 1000 ------- 2 1.0 3.1 60 64
+ 0.596 1 2 cbr 1000 ------- 2 1.0 3.1 62 66
- 0.596 1 2 cbr 1000 ------- 2 1.0 3.1 62 66
r 0.59896 2 3 tcp 1040 ------- 1 0.0 3.0 1 60
+ 0.59896 3 2 ack 40 ------- 1 3.0 0.0 1 67
- 0.59896 3 2 ack 40 ------- 1 3.0 0.0 1 67
r 0.602 1 2 cbr 1000 ------- 2 1.0 3.1 61 65
+ 0.602 2 3 cbr 1000 ------- 2 1.0 3.1 61 65
- 0.602 2 3 cbr 1000 ------- 2 1.0 3.1 61 65
r 0.60296 2 3 cbr 1000 ------- 2 1.0 3.1 58 62
+ 0.604 1 2 cbr 1000 ------- 2 1.0 3.1 63 68
- 0.604 1 2 cbr 1000 ------- 2 1.0 3.1 63 68
r 0.60712 2 3 tcp 1040 ------- 1 0.0 3.0 2 61
+ 0.60712 3 2 ack 40 ------- 1 3.0 0.0 2 69
- 0.60712 3 2 ack 40 ------- 1 3.0 0.0 2 69
r 0.61 1 2 cbr 1000 ------- 2 1.0 3.1 62 66
+ 0.61 2 3 cbr 1000 ------- 2 1.0 3.1 62 66
- 0.61 2 3 cbr 1000 ------- 2 1.0 3.1 62 66
r 0.61112 2 3 cbr 1000 ------- 2 1.0 3.1 59 63
+ 0.612 1 2 cbr 1000 ------- 2 1.0 3.1 64 70
- 0.612 1 2 cbr 1000 ------- 2 1.0 3.1 64 70
r 0.618 2 3 cbr 1000 ------- 2 1.0 3.1 60 64
r 0.618 1 2 cbr 1000 ------- 2 1.0 3.1 63 68
+ 0.618 2 3 cbr 1000 ------- 2 1.0 3.1 63 68
- 0.618 2 3 cbr 1000 ------- 2 1.0 3.1 63 68
r 0.61912 3 2 ack 40 ------- 1 3.0 0.0 1 67
+ 0.61912 2 0 ack 40 ------- 1 3.0 0.0 1 67
- 0.61912 2 0 ack 40 ------- 1 3.0 0.0 1 67
+ 0.62 1 2 cbr 1000 ------- 2 1.0 3.1 65 71
- 0.62 1 2 cbr 1000 ------- 2 1.0 3.1 65 71
r 0.626 2 3 cbr 1000 ------- 2 1.0 3.1 61 65
r 0.626 1 2 cbr 1000 ------- 2 1.0 3.1 64 70
+ 0.626 2 3 cbr 1000 ------- 2 1.0 3.1 64 70
- 0.626 2 3 cbr 1000 ------- 2 1.0 3.1 64 70
r 0.62728 3 2 ack 40 ------- 1 3.0 0.0 2 69
+ 0.62728 2 0 ack 40 ------- 1 3.0 0.0 2 69
- 0.62728 2 0 ack 40 ------- 1 3.0 0.0 2 69
+ 0.628 1 2 cbr 1000 ------- 2 1.0 3.1 66 72
- 0.628 1 2 cbr 1000 ------- 2 1.0 3.1 66 72
r 0.62928 2 0 ack 40 ------- 1 3.0 0.0 1 67
+ 0.62928 0 2 tcp 1040 ------- 1 0.0 3.0 3 73
- 0.62928 0 2 tcp 1040 ------- 1 0.0 3.0 3 73
+ 0.62928 0 2 tcp 1040 ------- 1 0.0 3.0 4 74
- 0.63344 0 2 tcp 1040 ------- 1 0.0 3.0 4 74
r 0.634 2 3 cbr 1000 ------- 2 1.0 3.1 62 66
r 0.634 1 2 cbr 1000 ------- 2 1.0 3.1 65 71
+ 0.634 2 3 cbr 1000 ------- 2 1.0 3.1 65 71
- 0.634 2 3 cbr 1000 ------- 2 1.0 3.1 65 71
+ 0.636 1 2 cbr 1000 ------- 2 1.0 3.1 67 75
- 0.636 1 2 cbr 1000 ------- 2 1.0 3.1 67 75
r 0.63744 2 0 ack 40 ------- 1 3.0 0.0 2 69
+ 0.63744 0 2 tcp 1040 ------- 1 0.0 3.0 5 76
+ 0.63744 0 2 tcp 1040 ------- 1 0.0 3.0 6 77
- 0.6376 0 2 tcp 1040 ------- 1 0.0 3.0 5 76
- 0.64176 0 2 tcp 1040 ------- 1 0.0 3.0 6 77
r 0.642 2 3 cbr 1000 ------- 2 1.0 3.1 63 68
r 0.642 1 2 cbr 1000 ------- 2 1.0 3.1 66 72
+ 0.642 2 3 cbr 1000 ------- 2 1.0 3.1 66 72
- 0.642 2 3 cbr 1000 ------- 2 1.0 3.1 66 72
r 0.64344 0 2 tcp 1040 ------- 1 0.0 3.0 3 73
+ 0.64344 2 3 tcp 1040 ------- 1 0.0 3.0 3 73
+ 0.644 1 2 cbr 1000 ------- 2 1.0 3.1 68 78
- 0.644 1 2 cbr 1000 ------- 2 1.0 3.1 68 78
- 0.646 2 3 tcp 1040 ------- 1 0.0 3.0 3 73
r 0.6476 0 2 tcp 1040 ------- 1 0.0 3.0 4 74
+ 0.6476 2 3 tcp 1040 ------- 1 0.0 3.0 4 74
r 0.65 2 3 cbr 1000 ------- 2 1.0 3.1 64 70
r 0.65 1 2 cbr 1000 ------- 2 1.0 3.1 67 75
+ 0.65 2 3 cbr 1000 ------- 2 1.0 3.1 67 75
- 0.65016 2 3 tcp 1040 ------- 1 0.0 3.0 4 74
r 0.65176 0 2 tcp 1040 ------- 1 0.0 3.0 5 76
+ 0.65176 2 3 tcp 1040 ------- 1 0.0 3.0 5 76
+ 0.652 1 2 cbr 1000 ------- 2 1.0 3.1 69 79
- 0.652 1 2 cbr 1000 ------- 2 1.0 3.1 69 79
- 0.65432 2 3 cbr 1000 ------- 2 1.0 3.1 67 75
r 0.65592 0 2 tcp 1040 ------- 1 0.0 3.0 6 77
+ 0.65592 2 3 tcp 1040 ------- 1 0.0 3.0 6 77
r 0.658 2 3 cbr 1000 ------- 2 1.0 3.1 65 71
r 0.658 1 2 cbr 1000 ------- 2 1.0 3.1 68 78
+ 0.658 2 3 cbr 1000 ------- 2 1.0 3.1 68 78
- 0.65832 2 3 tcp 1040 ------- 1 0.0 3.0 5 76
+ 0.66 1 2 cbr 1000 ------- 2 1.0 3.1 70 80
- 0.66 1 2 cbr 1000 ------- 2 1.0 3.1 70 80
- 0.66248 2 3 tcp 1040 ------- 1 0.0 3.0 6 77
r 0.666 2 3 cbr 1000 ------- 2 1.0 3.1 66 72
r 0.666 1 2 cbr 1000 ------- 2 1.0 3.1 69 79
+ 0.666 2 3 cbr 1000 ------- 2 1.0 3.1 69 79
- 0.66664 2 3 cbr 1000 ------- 2 1.0 3.1 68 78
+ 0.668 1 2 cbr 1000 ------- 2 1.0 3.1 71 81
- 0.668 1 2 cbr 1000 ------- 2 1.0 3.1 71 81
r 0.67016 2 3 tcp 1040 ------- 1 0.0 3.0 3 73
+ 0.67016 3 2 ack 40 ------- 1 3.0 0.0 3 82
- 0.67016 3 2 ack 40 ------- 1 3.0 0.0 3 82
- 0.67064 2 3 cbr 1000 ------- 2 1.0 3.1 69 79
r 0.674 1 2 cbr 1000 ------- 2 1.0 3.1 70 80
+ 0.674 2 3 cbr 1000 ------- 2 1.0 3.1 70 80
r 0.67432 2 3 tcp 1040 ------- 1 0.0 3.0 4 74
+ 0.67432 3 2 ack 40 ------- 1 3.0 0.0 4 83
- 0.67432 3 2 ack 40 ------- 1 3.0 0.0 4 83
- 0.67464 2 3 cbr 1000 ------- 2 1.0 3.1 70 80
+ 0.676 1 2 cbr 1000 ------- 2 1.0 3.1 72 84
- 0.676 1 2 cbr 1000 ------- 2 1.0 3.1 72 84
r 0.67832 2 3 cbr 1000 ------- 2 1.0 3.1 67 75
r 0.682 1 2 cbr 1000 ------- 2 1.0 3.1 71 81
+ 0.682 2 3 cbr 1000 ------- 2 1.0 3.1 71 81
- 0.682 2 3 cbr 1000 ------- 2 1.0 3.1 71 81
r 0.68248 2 3 tcp 1040 ------- 1 0.0 3.0 5 76
+ 0.68248 3 2 ack 40 ------- 1 3.0 0.0 5 85
- 0.68248 3 2 ack 40 ------- 1 3.0 0.0 5 85
+ 0.684 1 2 cbr 1000 ------- 2 1.0 3.1 73 86
- 0.684 1 2 cbr 1000 ------- 2 1.0 3.1 73 86
r 0.68664 2 3 tcp 1040 ------- 1 0.0 3.0 6 77
+ 0.68664 3 2 ack 40 ------- 1 3.0 0.0 6 87
- 0.68664 3 2 ack 40 ------- 1 3.0 0.0 6 87
r 0.69 1 2 cbr 1000 ------- 2 1.0 3.1 72 84
+ 0.69 2 3 cbr 1000 ------- 2 1.0 3.1 72 84
- 0.69 2 3 cbr 1000 ------- 2 1.0 3.1 72 84
r 0.69032 3 2 ack 40 ------- 1 3.0 0.0 3 82
+ 0.69032 2 0 ack 40 ------- 1 3.0 0.0 3 82
- 0.69032 2 0 ack 40 ------- 1 3.0 0.0 3 82
r 0.69064 2 3 cbr 1000 ------- 2 1.0 3.1 68 78
+ 0.692 1 2 cbr 1000 ------- 2 1.0 3.1 74 88
- 0.692 1 2 cbr 1000 ------- 2 1.0 3.1 74 88
r 0.69448 3 2 ack 40 ------- 1 3.0 0.0 4 83
+ 0.69448 2 0 ack 40 ------- 1 3.0 0.0 4 83
- 0.69448 2 0 ack 40 ------- 1 3.0 0.0 4 83
r 0.69464 2 3 cbr 1000 ------- 2 1.0 3.1 69 79
r 0.698 1 2 cbr 1000 ------- 2 1.0 3.1 73 86
+ 0.698 2 3 cbr 1000 ------- 2 1.0 3.1 73 86
- 0.698 2 3 cbr 1000 ------- 2 1.0 3.1 73 86
r 0.69864 2 3 cbr 1000 ------- 2 1.0 3.1 70 80
+ 0.7 1 2 cbr 1000 ------- 2 1.0 3.1 75 89
- 0.7 1 2 cbr 1000 ------- 2 1.0 3.1 75 89
r 0.70048 2 0 ack 40 ------- 1 3.0 0.0 3 82
+ 0.70048 0 2 tcp 1040 ------- 1 0.0 3.0 7 90
- 0.70048 0 2 tcp 1040 ------- 1 0.0 3.0 7 90
+ 0.70048 0 2 tcp 1040 ------- 1 0.0 3.0 8 91
r 0.70264 3 2 ack 40 ------- 1 3.0 0.0 5 85
+ 0.70264 2 0 ack 40 ------- 1 3.0 0.0 5 85
- 0.70264 2 0 ack 40 ------- 1 3.0 0.0 5 85
r 0.70464 2 0 ack 40 ------- 1 3.0 0.0 4 83
+ 0.70464 0 2 tcp 1040 ------- 1 0.0 3.0 9 92
+ 0.70464 0 2 tcp 1040 ------- 1 0.0 3.0 10 93
- 0.70464 0 2 tcp 1040 ------- 1 0.0 3.0 8 91
r 0.706 2 3 cbr 1000 ------- 2 1.0 3.1 71 81
r 0.706 1 2 cbr 1000 ------- 2 1.0 3.1 74 88
+ 0.706 2 3 cbr 1000 ------- 2 1.0 3.1 74 88
- 0.706 2 3 cbr 1000 ------- 2 1.0 3.1 74 88
r 0.7068 3 2 ack 40 ------- 1 3.0 0.0 6 87
+ 0.7068 2 0 ack 40 ------- 1 3.0 0.0 6 87
- 0.7068 2 0 ack 40 ------- 1 3.0 0.0 6 87
+ 0.708 1 2 cbr 1000 ------- 2 1.0 3.1 76 94
- 0.708 1 2 cbr 1000 ------- 2 1.0 3.1 76 94
- 0.7088 0 2 tcp 1040 ------- 1 0.0 3.0 9 92
r 0.7128 2 0 ack 40 ------- 1 3.0 0.0 5 85
+ 0.7128 0 2 tcp 1040 ------- 1 0.0 3.0 11 95
+ 0.7128 0 2 tcp 1040 ------- 1 0.0 3.0 12 96
- 0.71296 0 2 tcp 1040 ------- 1 0.0 3.0 10 93
r 0.714 2 3 cbr 1000 ------- 2 1.0 3.1 72 84
r 0.714 1 2 cbr 1000 ------- 2 1.0 3.1 75 89
+ 0.714 2 3 cbr 1000 ------- 2 1.0 3.1 75 89
- 0.714 2 3 cbr 1000 ------- 2 1.0 3.1 75 89
r 0.71464 0 2 tcp 1040 ------- 1 0.0 3.0 7 90
+ 0.71464 2 3 tcp 1040 ------- 1 0.0 3.0 7 90
+ 0.716 1 2 cbr 1000 ------- 2 1.0 3.1 77 97
- 0.716 1 2 cbr 1000 ------- 2 1.0 3.1 77 97
r 0.71696 2 0 ack 40 ------- 1 3.0 0.0 6 87
+ 0.71696 0 2 tcp 1040 ------- 1 0.0 3.0 13 98
+ 0.71696 0 2 tcp 1040 ------- 1 0.0 3.0 14 99
- 0.71712 0 2 tcp 1040 ------- 1 0.0 3.0 11 95
- 0.718 2 3 tcp 1040 ------- 1 0.0 3.0 7 90
r 0.7188 0 2 tcp 1040 ------- 1 0.0 3.0 8 91
+ 0.7188 2 3 tcp 1040 ------- 1 0.0 3.0 8 91
- 0.72128 0 2 tcp 1040 ------- 1 0.0 3.0 12 96
r 0.722 2 3 cbr 1000 ------- 2 1.0 3.1 73 86
r 0.722 1 2 cbr 1000 ------- 2 1.0 3.1 76 94
+ 0.722 2 3 cbr 1000 ------- 2 1.0 3.1 76 94
- 0.72216 2 3 tcp 1040 ------- 1 0.0 3.0 8 91
r 0.72296 0 2 tcp 1040 ------- 1 0.0 3.0 9 92
+ 0.72296 2 3 tcp 1040 ------- 1 0.0 3.0 9 92
+ 0.724 1 2 cbr 1000 ------- 2 1.0 3.1 78 100
- 0.724 1 2 cbr 1000 ------- 2 1.0 3.1 78 100
- 0.72544 0 2 tcp 1040 ------- 1 0.0 3.0 13 98
- 0.72632 2 3 cbr 1000 ------- 2 1.0 3.1 76 94
r 0.72712 0 2 tcp 1040 ------- 1 0.0 3.0 10 93
+ 0.72712 2 3 tcp 1040 ------- 1 0.0 3.0 10 93
- 0.7296 0 2 tcp 1040 ------- 1 0.0 3.0 14 99
r 0.73 2 3 cbr 1000 ------- 2 1.0 3.1 74 88
r 0.73 1 2 cbr 1000 ------- 2 1.0 3.1 77 97
+ 0.73 2 3 cbr 1000 ------- 2 1.0 3.1 77 97
- 0.73032 2 3 tcp 1040 ------- 1 0.0 3.0 9 92
r 0.73128 0 2 tcp 1040 ------- 1 0.0 3.0 11 95
+ 0.73128 2 3 tcp 1040 ------- 1 0.0 3.0 11 95
+ 0.732 1 2 cbr 1000 ------- 2 1.0 3.1 79 101
- 0.732 1 2 cbr 1000 ------- 2 1.0 3.1 79 101
- 0.73448 2 3 tcp 1040 ------- 1 0.0 3.0 10 93
r 0.73544 0 2 tcp 1040 ------- 1 0.0 3.0 12 96
+ 0.73544 2 3 tcp 1040 ------- 1 0.0 3.0 12 96
r 0.738 2 3 cbr 1000 ------- 2 1.0 3.1 75 89
r 0.738 1 2 cbr 1000 ------- 2 1.0 3.1 78 100
+ 0.738 2 3 cbr 1000 ------- 2 1.0 3.1 78 100
- 0.73864 2 3 cbr 1000 ------- 2 1.0 3.1 77 97
r 0.7396 0 2 tcp 1040 ------- 1 0.0 3.0 13 98
+ 0.7396 2 3 tcp 1040 ------- 1 0.0 3.0 13 98
+ 0.74 1 2 cbr 1000 ------- 2 1.0 3.1 80 102
- 0.74 1 2 cbr 1000 ------- 2 1.0 3.1 80 102
r 0.74216 2 3 tcp 1040 ------- 1 0.0 3.0 7 90
+ 0.74216 3 2 ack 40 ------- 1 3.0 0.0 7 103
- 0.74216 3 2 ack 40 ------- 1 3.0 0.0 7 103
- 0.74264 2 3 tcp 1040 ------- 1 0.0 3.0 11 95
r 0.74376 0 2 tcp 1040 ------- 1 0.0 3.0 14 99
+ 0.74376 2 3 tcp 1040 ------- 1 0.0 3.0 14 99
r 0.746 1 2 cbr 1000 ------- 2 1.0 3.1 79 101
+ 0.746 2 3 cbr 1000 ------- 2 1.0 3.1 79 101
r 0.74632 2 3 tcp 1040 ------- 1 0.0 3.0 8 91
+ 0.74632 3 2 ack 40 ------- 1 3.0 0.0 8 104
- 0.74632 3 2 ack 40 ------- 1 3.0 0.0 8 104
- 0.7468 2 3 tcp 1040 ------- 1 0.0 3.0 12 96
+ 0.748 1 2 cbr 1000 ------- 2 1.0 3.1 81 105
- 0.748 1 2 cbr 1000 ------- 2 1.0 3.1 81 105
r 0.75032 2 3 cbr 1000 ------- 2 1.0 3.1 76 94
- 0.75096 2 3 cbr 1000 ------- 2 1.0 3.1 78 100
r 0.754 1 2 cbr 1000 ------- 2 1.0 3.1 80 102
+ 0.754 2 3 cbr 1000 ------- 2 1.0 3.1 80 102
r 0.75448 2 3 tcp 1040 ------- 1 0.0 3.0 9 92
+ 0.75448 3 2 ack 40 ------- 1 3.0 0.0 9 106
- 0.75448 3 2 ack 40 ------- 1 3.0 0.0 9 106
- 0.75496 2 3 tcp 1040 ------- 1 0.0 3.0 13 98
+ 0.756 1 2 cbr 1000 ------- 2 1.0 3.1 82 107
- 0.756 1 2 cbr 1000 ------- 2 1.0 3.1 82 107
r 0.75864 2 3 tcp 1040 ------- 1 0.0 3.0 10 93
+ 0.75864 3 2 ack 40 ------- 1 3.0 0.0 10 108
- 0.75864 3 2 ack 40 ------- 1 3.0 0.0 10 108
- 0.75912 2 3 tcp 1040 ------- 1 0.0 3.0 14 99
r 0.762 1 2 cbr 1000 ------- 2 1.0 3.1 81 105
+ 0.762 2 3 cbr 1000 ------- 2 1.0 3.1 81 105
r 0.76232 3 2 ack 40 ------- 1 3.0 0.0 7 103
+ 0.76232 2 0 ack 40 ------- 1 3.0 0.0 7 103
- 0.76232 2 0 ack 40 ------- 1 3.0 0.0 7 103
r 0.76264 2 3 cbr 1000 ------- 2 1.0 3.1 77 97
- 0.76328 2 3 cbr 1000 ------- 2 1.0 3.1 79 101
+ 0.764 1 2 cbr 1000 ------- 2 1.0 3.1 83 109
- 0.764 1 2 cbr 1000 ------- 2 1.0 3.1 83 109
r 0.76648 3 2 ack 40 ------- 1 3.0 0.0 8 104
+ 0.76648 2 0 ack 40 ------- 1 3.0 0.0 8 104
- 0.76648 2 0 ack 40 ------- 1 3.0 0.0 8 104
r 0.7668 2 3 tcp 1040 ------- 1 0.0 3.0 11 95
+ 0.7668 3 2 ack 40 ------- 1 3.0 0.0 11 110
- 0.7668 3 2 ack 40 ------- 1 3.0 0.0 11 110
- 0.76728 2 3 cbr 1000 ------- 2 1.0 3.1 80 102
r 0.77 1 2 cbr 1000 ------- 2 1.0 3.1 82 107
+ 0.77 2 3 cbr 1000 ------- 2 1.0 3.1 82 107
r 0.77096 2 3 tcp 1040 ------- 1 0.0 3.0 12 96
+ 0.77096 3 2 ack 40 ------- 1 3.0 0.0 12 111
- 0.77096 3 2 ack 40 ------- 1 3.0 0.0 12 111
- 0.77128 2 3 cbr 1000 ------- 2 1.0 3.1 81 105
+ 0.772 1 2 cbr 1000 ------- 2 1.0 3.1 84 112
- 0.772 1 2 cbr 1000 ------- 2 1.0 3.1 84 112
r 0.77248 2 0 ack 40 ------- 1 3.0 0.0 7 103
+ 0.77248 0 2 tcp 1040 ------- 1 0.0 3.0 15 113
- 0.77248 0 2 tcp 1040 ------- 1 0.0 3.0 15 113
+ 0.77248 0 2 tcp 1040 ------- 1 0.0 3.0 16 114
r 0.77464 3 2 ack 40 ------- 1 3.0 0.0 9 106
+ 0.77464 2 0 ack 40 ------- 1 3.0 0.0 9 106
- 0.77464 2 0 ack 40 ------- 1 3.0 0.0 9 106
r 0.77496 2 3 cbr 1000 ------- 2 1.0 3.1 78 100
- 0.77528 2 3 cbr 1000 ------- 2 1.0 3.1 82 107
r 0.77664 2 0 ack 40 ------- 1 3.0 0.0 8 104
+ 0.77664 0 2 tcp 1040 ------- 1 0.0 3.0 17 115
+ 0.77664 0 2 tcp 1040 ------- 1 0.0 3.0 18 116
- 0.77664 0 2 tcp 1040 ------- 1 0.0 3.0 16 114
r 0.778 1 2 cbr 1000 ------- 2 1.0 3.1 83 109
+ 0.778 2 3 cbr 1000 ------- 2 1.0 3.1 83 109
r 0.7788 3 2 ack 40 ------- 1 3.0 0.0 10 108
+ 0.7788 2 0 ack 40 ------- 1 3.0 0.0 10 108
- 0.7788 2 0 ack 40 ------- 1 3.0 0.0 10 108
r 0.77912 2 3 tcp 1040 ------- 1 0.0 3.0 13 98
+ 0.77912 3 2 ack 40 ------- 1 3.0 0.0 13 117
- 0.77912 3 2 ack 40 ------- 1 3.0 0.0 13 117
- 0.77928 2 3 cbr 1000 ------- 2 1.0 3.1 83 109
+ 0.78 1 2 cbr 1000 ------- 2 1.0 3.1 85 118
- 0.78 1 2 cbr 1000 ------- 2 1.0 3.1 85 118