V -t * -v 1.0a5 -a 0
A -t * -n 1 -p 0 -o 0x7fffffff -c 30 -a 1
A -t * -h 1 -m 1073741823 -s 0
c -t * -i 1 -n Blue
c -t * -i 2 -n Red
n -t * -a 0 -s 0 -S UP -v circle -c black -i black
n -t * -a 1 -s 1 -S UP -v circle -c black -i black
n -t * -a 2 -s 2 -S UP -v circle -c black -i black
n -t * -a 3 -s 3 -S UP -v circle -c black -i black
l -t * -s 0 -d 2 -S UP -r 2000000 -D 0.01 -c black -o right-down
l -t * -s 1 -d 2 -S UP -r 2000000 -D 0.01 -c black -o right-up
l -t * -s 2 -d 3 -S UP -r 2000000 -D 0.02 -c black -o right
q -t * -s 3 -d 2 -a 0.5
q -t * -s 2 -d 3 -a 0.5
+ -t 0.1 -s 1 -d 2 -p cbr -e 1000 -c 2 -i 0 -a 2 -x {1.0 3.1 0 ------- null}
- -t 0.1 -s 1 -d 2 -p cbr -e 1000 -c 2 -i 0 -a 2 -x {1.0 3.1 0 ------- null}
h -t 0.1 -s 1 -d 2 -p cbr -e 1000 -c 2 -i 0 -a 2 -x {1.0 3.1 -1 ------- null}
+ -t 0.108 -s 1 -d 2 -p cbr -e 1000 -c 2 -i 1 -a 2 -x {1.0 3.1 1 ------- null}
- -t 0.108 -s 1 -d 2 -p cbr -e 1000 -c 2 -i 1 -a 2 -x {1.0 3.1 1 ------- null}
h -t 0.108 -s 1 -d 2 -p cbr -e 1000 -c 2 -i 1 -a 2 -x {1.0 3.1 -1 ------- null}
r -t 0.114 -s 1 -d 2 -p cbr -e 1000 -c 2 -i 0 -a 2 -x {1.0 3.1 0 ------- null}
+ -t 0.114 -s 2 -d 3 -p cbr -e 1000 -c 2 -i 0 -a 2 -x {1.0 3.1 0 ------- null}
- -t 0.114 -s 2 -d 3 -p cbr -e 1000 -c 2 -i 0 -a 2 -x {1.0 3.1 0 ------- null}
h -t 0.114 -s 2 -d 3 -p cbr -e 1000 -c 2 -i 0 -a 2 -x {1.0 3.1 -1 ------- null}
+ -t 0.116 -s 1 -d 2 -p cbr -e 1000 -c 2 -i 2 -a 2 -x {1.0 3.1 2 ------- null}
- -t 0.116 -s 1 -d 2 -p cbr -e 1000 -c 2 -i 2 -a 2 -x {1.0 3.1 2 ------- null}
h -t 0.116 -s 1 -d 2 -p cbr -e 1000 -c 2 -i 2 -a 2 -x {1.0 3.1 -1 ------- null}
r -t 0.122 -s 1 -d 2 -p cbr -e 1000 -c 2 -i 1 -a 2 -x {1.0 3.1 1 ------- null}
+ -t 0.122 -s 2 -d 3 -p cbr -e 1000 -c 2 -i 1 -a 2 -x {1.0 3.1 1 ------- null}
- -t 0.122 -s 2 -d 3 -p cbr -e 1000 -c 2 -i 1 -a 2 -x {1.0 3.1 1 ------- null}
h -t 0.122 -s 2 -d 3 -p cbr -e 1000 -c 2 -i 1 -a 2 -x {1.0 3.1 -1 ------- null}
+ -t 0.124 -s 1 -d 2 -p cbr -e 1000 -c 2 -i 3 -a 2 -x {1.0 3.1 3 ------- null}
- -t 0.124 -s 1 -d 2 -p cbr -e 1000 -c 2 -i 3 -a 2 -x {1.0 3.1 3 ------- null}
h -t 0.124 -s 1 -d 2 -p cbr -e 1000 -c 2 -i 3 -a 2 -x {1.0 3.1 -1 ------- null}
r -t 0.13 -s 1 -d 2 -p cbr -e 1000 -c 2 -i 2 -a 2 -x {1.0 3.1 2 ------- null}
+ -t 0.13 -s 2 -d 3 -p cbr -e 1000 -c 2 -i 2 -a 2 -x {1.0 3.1 2 ------- null}
- -t 0.13 -s 2 -d 3 -p cbr -e 1000 -c 2 -i 2 -a 2 -x {1.0 3.1 2 ------- null}
h -t 0.13 -s 2 -d 3 -p cbr -e 1000 -c 2 -i 2 -a 2 -x {1.0 3.1 -1 ------- null}
+ -t 0.132 -s 1 -d 2 -p cbr -e 1000 -c 2 -i 4 -a 2 -x {1.0 3.1 4 ------- null}
- -t 0.132 -s 1 -d 2 -p cbr -e 1000 -c 2 -i 4 -a 2 -x {1.0 3.1 4 ------- null}
h -t 0.132 -s 1 -d 2 -p cbr -e 1000 -c 2 -i 4 -a 2 -x {1.0 3.1 -1 ------- null}
r -t 0.138 -s 2 -d 3 -p cbr -e 1000 -c 2 -i 0 -a 2 -x {1.0 3.1 0 ------- null}
r -t 0.138 -s 1 -d 2 -p cbr -e 1000 -c 2 -i 3 -a 2 -x {1.0 3.1 3 ------- null}
+ -t 0.138 -s 2 -d 3 -p cbr -e 1000 -c 2 -i 3 -a 2 -x {1.0 3.1 3 ------- null}
- -t 0.138 -s 2 -d 3 -p cbr -e 1000 -c 2 -i 3 -a 2 -x {1.0 3.1 3 ------- null}
h -t 0.138 -s 2 -d 3 -p cbr -e 1000 -c 2 -i 3 -a 2 -x {1.0 3.1 -1 ------- null}
+ -t 0.14 -s 1 -d 2 -p cbr -e 1000 -c 2 -i 5 -a 2 -x {1.0 3.1 5 ------- null}
- -t 0.14 -s 1 -d 2 -p cbr -e 1000 -c 2 -i 5 -a 2 -x {1.0 3.1 5 ------- null}
h -t 0.14 -s 1 -d 2 -p cbr -e 1000 -c 2 -i 5 -a 2 -x {1.0 3.1 -1 ------- null}
r -t 0.146 -s 2 -d 3 -p cbr -e 1000 -c 2 -i 1 -a 2 -x {1.0 3.1 1 ------- null}
r -t 0.146 -s 1 -d 2 -p cbr -e 1000 -c 2 -i 4 -a 2 -x {1.0 3.1 4 ------- null}
+ -t 0.146 -s 2 -d 3 -p cbr -e 1000 -c 2 -i 4 -a 2 -x {1.0 3.1 4 ------- null}
- -t 0.146 -s 2 -d 3 -p cbr -e 1000 -c 2 -i 4 -a 2 -x {1.0 3.1 4 ------- null}
h -t 0.146 -s 2 -d 3 -p cbr -e 1000 -c 2 -i 4 -a 2 -x {1.0 3.1 -1 ------- null}
+ -t 0.148 -s 1 -d 2 -p cbr -e 1000 -c 2 -i 6 -a 2 -x {1.0 3.1 6 ------- null}
- -t 0.148 -s 1 -d 2 -p cbr -e 1000 -c 2 -i 6 -a 2 -x {1.0 3.1 6 ------- null}
h -t 0.148 -s 1 -d 2 -p cbr -e 1000 -c 2 -i 6 -a 2 -x {1.0 3.1 -1 ------- null}
r -t 0.154 -s 2 -d 3 -p cbr -e 1000 -c 2 -i 2 -a 2 -x {1.0 3.1 2 ------- null}
r -t 0.154 -s 1 -d 2 -p cbr -e 1000 -c 2 -i 5 -a 2 -x {1.0 3.1 5 ------- null}
+ -t 0.154 -s 2 -d 3 -p cbr -e 1000 -c 2 -i 5 -a 2 -x {1.0 3.1 5 ------- null}
- -t 0.154 -s 2 -d 3 -p cbr -e 1000 -c 2 -i 5 -a 2 -x {1.0 3.1 5 ------- null}
h -t 0.154 -s 2 -d 3 -p cbr -e 1000 -c 2 -i 5 -a 2 -x {1.0 3.1 -1 ------- null}
+ -t 0.156 -s 1 -d 2 -p cbr -e 1000 -c 2 -i 7 -a 2 -x {1.0 3.1 7 ------- null}
- -t 0.156 -s 1 -d 2 -p cbr -e 1000 -c 2 -i 7 -a 2 -x {1.0 3.1 7 ------- null}
h -t 0.156 -s 1 -d 2 -p cbr -e 1000 -c 2 -i 7 -a 2 -x {1.0 3.1 -1 ------- null}
r -t 0.162 -s 2 -d 3 -p cbr -e 1000 -c 2 -i 3 -a 2 -x {1.0 3.1 3 ------- null}
r -t 0.162 -s 1 -d 2 -p cbr -e 1000 -c 2 -i 6 -a 2 -x {1.0 3.1 6 ------- null}
+ -t 0.162 -s 2 -d 3 -p cbr -e 1000 -c 2 -i 6 -a 2 -x {1.0 3.1 6 ------- null}
- -t 0.162 -s 2 -d 3 -p cbr -e 1000 -c 2 -i 6 -a 2 -x {1.0 3.1 6 ------- null}
h -t 0.162 -s 2 -d 3 -p cbr -e 1000 -c 2 -i 6 -a 2 -x {1.0 3.1 -1 ------- null}
+ -t 0.164 -s 1 -d 2 -p cbr -e 1000 -c 2 -i 8 -a 2 -x {1.0 3.1 8 ------- null}
- -t 0.164 -s 1 -d 2 -p cbr -e 1000 -c 2 -i 8 -a 2 -x {1.0 3.1 8 ------- null}
h -t 0.164 -s 1 -d 2 -p cbr -e 1000 -c 2 -i 8 -a 2 -x {1.0 3.1 -1 ------- null}
r -t 0.17 -s 2 -d 3 -p cbr -e 1000 -c 2 -i 4 -a 2 -x {1.0 3.1 4 ------- null}
r -t 0.17 -s 1 -d 2 -p cbr -e 1000 -c 2 -i 7 -a 2 -x {1.0 3.1 7 ------- null}
+ -t 0.17 -s 2 -d 3 -p cbr -e 1000 -c 2 -i 7 -a 2 -x {1.0 3.1 7 ------- null}
- -t 0.17 -s 2 -d 3 -p cbr -e 1000 -c 2 -i 7 -a 2 -x {1.0 3.1 7 ------- null}
h -t 0.17 -s 2 -d 3 -p cbr -e 1000 -c 2 -i 7 -a 2 -x {1.0 3.1 -1 ------- null}
+ -t 0.172 -s 1 -d 2 -p cbr -e 1000 -c 2 -i 9 -a 2 -x {1.0 3.1 9 ------- null}
- -t 0.172 -s 1 -d 2 -p cbr -e 1000 -c 2 -i 9 -a 2 -x {1.0 3.1 9 ------- null}
h -t 0.172 -s 1 -d 2 -p cbr -e 1000 -c 2 -i 9 -a 2 -x {1.0 3.1 -1 ------- null}
r -t 0.178 -s 2 -d 3 -p cbr -e 1000 -c 2 -i 5 -a 2 -x {1.0 3.1 5 ------- null}
r -t 0.178 -s 1 -d 2 -p cbr -e 1000 -c 2 -i 8 -a 2 -x {1.0 3.1 8 ------- null}
+ -t 0.178 -s 2 -d 3 -p cbr -e 1000 -c 2 -i 8 -a 2 -x {1.0 3.1 8 ------- null}
- -t 0.178 -s 2 -d 3 -p cbr -e 1000 -c 2 -i 8 -a 2 -x {1.0 3.1 8 ------- null}
h -t 0.178 -s 2 -d 3 -p cbr -e 1000 -c 2 -i 8 -a 2 -x {1.0 3.1 -1 ------- null}
+ -t 0.18 -s 1 -d 2 -p cbr -e 1000 -c 2 -i 10 -a 2 -x {1.0 3.1 10 ------- null}
- -t 0.18 -s 1 -d 2 -p cbr -e 1000 -c 2 -i 10 -a 2 -x {1.0 3.1 10 ------- null}
h -t 0.18 -s 1 -d 2 -p cbr -e 1000 -c 2 -i 10 -a 2 -x {1.0 3.1 -1 ------- null}
r -t 0.186 -s 2 -d 3 -p cbr -e 1000 -c 2 -i 6 -a 2 -x {1.0 3.1 6 ------- null}
r -t 0.186 -s 1 -d 2 -p cbr -e 1000 -c 2 -i 9 -a 2 -x {1.0 3.1 9 ------- null}
+ -t 0.186 -s 2 -d 3 -p cbr -e 1000 -c 2 -i 9 -a 2 -x {1.0 3.1 9 ------- null}
- -t 0.186 -s 2 -d 3 -p cbr -e 1000 -c 2 -i 9 -a 2 -x {1.0 3.1 9 ------- null}
h -t 0.186 -s 2 -d 3 -p cbr -e 1000 -c 2 -i 9 -a 2 -x {1.0 3.1 -1 ------- null}
+ -t 0.188 -s 1 -d 2 -p cbr -e 1000 -c 2 -i 11 -a 2 -x {1.0 3.1 11 ------- null}
- -t 0.188 -s 1 -d 2 -p cbr -e 1000 -c 2 -i 11 -a 2 -x {1.0 3.1 11 ------- null}
h -t 0.188 -s 1 -d 2 -p cbr -e 1000 -c 2 -i 11 -a 2 -x {1.0 3.1 -1 ------- null}
r -t 0.194 -s 2 -d 3 -p cbr -e 1000 -c 2 -i 7 -a 2 -x {1.0 3.1 7 ------- null}
r -t 0.194 -s 1 -d 2 -p cbr -e 1000 -c 2 -i 10 -a 2 -x {1.0 3.1 10 ------- null}
+ -t 0.194 -s 2 -d 3 -p cbr -e 1000 -c 2 -i 10 -a 2 -x {1.0 3.1 10 ------- null}
- -t 0.194 -s 2 -d 3 -p cbr -e 1000 -c 2 -i 10 -a 2 -x {1.0 3.1 10 ------- null}
h -t 0.194 -s 2 -d 3 -p cbr -e 1000 -c 2 -i 10 -a 2 -x {1.0 3.1 -1 ------- null}
+ -t 0.196 -s 1 -d 2 -p cbr -e 1000 -c 2 -i 12 -a 2 -x {1.0 3.1 12 ------- null}
- -t 0.196 -s 1 -d 2 -p cbr -e 1000 -c 2 -i 12 -a 2 -x {1.0 3.1 12 ------- null}
h -t 0.196 -s 1 -d 2 -p cbr -e 1000 -c 2 -i 12 -a 2 -x {1.0 3.1 -1 ------- null}
r -t 0.202 -s 2 -d 3 -p cbr -e 1000 -c 2 -i 8 -a 2 -x {1.0 3.1 8 ------- null}
r -t 0.202 -s 1 -d 2 -p cbr -e 1000 -c 2 -i 11 -a 2 -x {1.0 3.1 11 ------- null}
+ -t 0.202 -s 2 -d 3 -p cbr -e 1000 -c 2 -i 11 -a 2 -x {1.0 3.1 11 ------- null}
- -t 0.202 -s 2 -d 3 -p cbr -e 1000 -c 2 -i 11 -a 2 -x {1.0 3.1 11 ------- null}
h -t 0.202 -s 2 -d 3 -p cbr -e 1000 -c 2 -i 11 -a 2 -x {1.0 3.1 -1 ------- null}
+ -t 0.204 -s 1 -d 2 -p cbr -e 1000 -c 2 -i 13 -a 2 -x {1.0 3.1 13 ------- null}
- -t 0.204 -s 1 -d 2 -p cbr -e 1000 -c 2 -i 13 -a 2 -x {1.0 3.1 13 ------- null}
h -t 0.204 -s 1 -d 2 -p cbr -e 1000 -c 2 -i 13 -a 2 -x {1.0 3.1 -1 ------- null}
r -t 0.21 -s 2 -d 3 -p cbr -e 1000 -c 2 -i 9 -a 2 -x {1.0 3.1 9 ------- null}
r -t 0.21 -s 1 -d 2 -p cbr -e 1000 -c 2 -i 12 -a 2 -x {1.0 3.1 12 ------- null}
+ -t 0.21 -s 2 -d 3 -p cbr -e 1000 -c 2 -i 12 -a 2 -x {1.0 3.1 12 ------- null}
- -t 0.21 -s 2 -d 3 -p cbr -e 1000 -c 2 -i 12 -a 2 -x {1.0 3.1 12 ------- null}
h -t 0.21 -s 2 -d 3 -p cbr -e 1000 -c 2 -i 12 -a 2 -x {1.0 3.1 -1 ------- null}
+ -t 0.212 -s 1 -d 2 -p cbr -e 1000 -c 2 -i 14 -a 2 -x {1.0 3.1 14 ------- null}
- -t 0.212 -s 1 -d 2 -p cbr -e 1000 -c 2 -i 14 -a 2 -x {1.0 3.1 14 ------- null}
h -t 0.212 -s 1 -d 2 -p cbr -e 1000 -c 2 -i 14 -a 2 -x {1.0 3.1 -1 ------- null}
r -t 0.218 -s 2 -d 3 -p cbr -e 1000 -c 2 -i 10 -a 2 -x {1.0 3.1 10 ------- null}
r -t 0.218 -s 1 -d 2 -p cbr -e 1000 -c 2 -i 13 -a 2 -x {1.0 3.1 13 ------- null}
+ -t 0.218 -s 2 -d 3 -p cbr -e 1000 -c 2 -i 13 -a 2 -x {1.0 3.1 13 ------- null}
- -t 0.218 -s 2 -d 3 -p cbr -e 1000 -c 2 -i 13 -a 2 -x {1.0 3.1 13 ------- null}
h -t 0.218 -s 2 -d 3 -p cbr -e 1000 -c 2 -i 13 -a 2 -x {1.0 3.1 -1 ------- null}
+ -t 0.22 -s 1 -d 2 -p cbr -e 1000 -c 2 -i 15 -a 2 -x {1.0 3.1 15 ------- null}
- -t 0.22 -s 1 -d 2 -p cbr -e 1000 -c 2 -i 15 -a 2 -x {1.0 3.1 15 ------- null}
h -t 0.22 -s 1 -d 2 -p cbr -e 1000 -c 2 -i 15 -a 2 -x {1.0 3.1 -1 ------- null}
r -t 0.226 -s 2 -d 3 -p cbr -e 1000 -c 2 -i 11 -a 2 -x {1.0 3.1 11 ------- null}
r -t 0.226 -s 1 -d 2 -p cbr -e 1000 -c 2 -i 14 -a 2 -x {1.0 3.1 14 ------- null}
+ -t 0.226 -s 2 -d 3 -p cbr -e 1000 -c 2 -i 14 -a 2 -x {1.0 3.1 14 ------- null}
- -t 0.226 -s 2 -d 3 -p cbr -e 1000 -c 2 -i 14 -a 2 -x {1.0 3.1 14 ------- null}
h -t 0.226 -s 2 -d 3 -p cbr -e 1000 -c 2 -i 14 -a 2 -x {1.0 3.1 -1 ------- null}
+ -t 0.228 -s 1 -d 2 -p cbr -e 1000 -c 2 -i 16 -a 2 -x {1.0 3.1 16 ------- null}
- -t 0.228 -s 1 -d 2 -p cbr -e 1000 -c 2 -i 16 -a 2 -x {1.0 3.1 16 ------- null}
h -t 0.228 -s 1 -d 2 -p cbr -e 1000 -c 2 -i 16 -a 2 -x {1.0 3.1 -1 ------- null}
r -t 0.234 -s 2 -d 3 -p cbr -e 1000 -c 2 -i 12 -a 2 -x {1.0 3.1 12 ------- null}
r -t 0.234 -s 1 -d 2 -p cbr -e 1000 -c 2 -i 15 -a 2 -x {1.0 3.1 15 ------- null}
+ -t 0.234 -s 2 -d 3 -p cbr -e 1000 -c 2 -i 15 -a 2 -x {1.0 3.1 15 ------- null}
- -t 0.234 -s 2 -d 3 -p cbr -e 1000 -c 2 -i 15 -a 2 -x {1.0 3.1 15 ------- null}
h -t 0.234 -s 2 -d 3 -p cbr -e 1000 -c 2 -i 15 -a 2 -x {1.0 3.1 -1 ------- null}
+ -t 0.236 -s 1 -d 2 -p cbr -e 1000 -c 2 -i 17 -a 2 -x {1.0 3.1 17 ------- null}
- -t 0.236 -s 1 -d 2 -p cbr -e 1000 -c 2 -i 17 -a 2 -x {1.0 3.1 17 ------- null}
h -t 0.236 -s 1 -d 2 -p cbr -e 1000 -c 2 -i 17 -a 2 -x {1.0 3.1 -1 ------- null}
r -t 0.242 -s 2 -d 3 -p cbr -e 1000 -c 2 -i 13 -a 2 -x {1.0 3.1 13 ------- null}
r -t 0.242 -s 1 -d 2 -p cbr -e 1000 -c 2 -i 16 -a 2 -x {1.0 3.1 16 ------- null}
+ -t 0.242 -s 2 -d 3 -p cbr -e 1000 -c 2 -i 16 -a 2 -x {1.0 3.1 16 ------- null}
- -t 0.242 -s 2 -d 3 -p cbr -e 1000 -c 2 -i 16 -a 2 -x {1.0 3.1 16 ------- null}
h -t 0.242 -s 2 -d 3 -p cbr -e 1000 -c 2 -i 16 -a 2 -x {1.0 3.1 -1 ------- null}
+ -t 0.244 -s 1 -d 2 -p cbr -e 1000 -c 2 -i 18 -a 2 -x {1.0 3.1 18 ------- null}
- -t 0.244 -s 1 -d 2 -p cbr -e 1000 -c 2 -i 18 -a 2 -x {1.0 3.1 18 ------- null}
h -t 0.244 -s 1 -d 2 -p cbr -e 1000 -c 2 -i 18 -a 2 -x {1.0 3.1 -1 ------- null}
r -t 0.25 -s 2 -d 3 -p cbr -e 1000 -c 2 -i 14 -a 2 -x {1.0 3.1 14 ------- null}
r -t 0.25 -s 1 -d 2 -p cbr -e 1000 -c 2 -i 17 -a 2 -x {1.0 3.1 17 ------- null}
+ -t 0.25 -s 2 -d 3 -p cbr -e 1000 -c 2 -i 17 -a 2 -x {1.0 3.1 17 ------- null}
- -t 0.25 -s 2 -d 3 -p cbr -e 1000 -c 2 -i 17 -a 2 -x {1.0 3.1 17 ------- null}
h -t 0.25 -s 2 -d 3 -p cbr -e 1000 -c 2 -i 17 -a 2 -x {1.0 3.1 -1 ------- null}
+ -t 0.252 -s 1 -d 2 -p cbr -e 1000 -c 2 -i 19 -a 2 -x {1.0 3.1 19 ------- null}
- -t 0.252 -s 1 -d 2 -p cbr -e 1000 -c 2 -i 19 -a 2 -x {1.0 3.1 19 ------- null}
h -t 0.252 -s 1 -d 2 -p cbr -e 1000 -c 2 -i 19 -a 2 -x {1.0 3.1 -1 ------- null}
r -t 0.258 -s 2 -d 3 -p cbr -e 1000 -c 2 -i 15 -a 2 -x {1.0 3.1 15 ------- null}
r -t 0.258 -s 1 -d 2 -p cbr -e 1000 -c 2 -i 18 -a 2 -x {1.0 3.1 18 ------- null}
+ -t 0.258 -s 2 -d 3 -p cbr -e 1000 -c 2 -i 18 -a 2 -x {1.0 3.1 18 ------- null}
- -t 0.258 -s 2 -d 3 -p cbr -e 1000 -c 2 -i 18 -a 2 -x {1.0 3.1 18 ------- null}
h -t 0.258 -s 2 -d 3 -p cbr -e 1000 -c 2 -i 18 -a 2 -x {1.0 3.1 -1 ------- null}
+ -t 0.26 -s 1 -d 2 -p cbr -e 1000 -c 2 -i 20 -a 2 -x {1.0 3.1 20 ------- null}
- -t 0.26 -s 1 -d 2 -p cbr -e 1000 -c 2 -i 20 -a 2 -x {1.0 3.1 20 ------- null}
h -t 0.26 -s 1 -d 2 -p cbr -e 1000 -c 2 -i 20 -a 2 -x {1.0 3.1 -1 ------- null}
r -t 0.266 -s 2 -d 3 -p cbr -e 1000 -c 2 -i 16 -a 2 -x {1.0 3.1 16 ------- null}
r -t 0.266 -s 1 -d 2 -p cbr -e 1000 -c 2 -i 19 -a 2 -x {1.0 3.1 19 ------- null}
+ -t 0.266 -s 2 -d 3 -p cbr -e 1000 -c 2 -i 19 -a 2 -x {1.0 3.1 19 ------- null}
- -t 0.266 -s 2 -d 3 -p cbr -e 1000 -c 2 -i 19 -a 2 -x {1.0 3.1 19 ------- null}
h -t 0.266 -s 2 -d 3 -p cbr -e 1000 -c 2 -i 19 -a 2 -x {1.0 3.1 -1 ------- null}
+ -t 0.268 -s 1 -d 2 -p cbr -e 1000 -c 2 -i 21 -a 2 -x {1.0 3.1 21 ------- null}
- -t 0.268 -s 1 -d 2 -p cbr -e 1000 -c 2 -i 21 -a 2 -x {1.0 3.1 21 ------- null}
h -t 0.268 -s 1 -d 2 -p cbr -e 1000 -c 2 -i 21 -a 2 -x {1.0 3.1 -1 ------- null}
r -t 0.274 -s 2 -d 3 -p cbr -e 1000 -c 2 -i 17 -a 2 -x {1.0 3.1 17 ------- null}
r -t 0.274 -s 1 -d 2 -p cbr -e 1000 -c 2 -i 20 -a 2 -x {1.0 3.1 20 ------- null}
+ -t 0.274 -s 2 -d 3 -p cbr -e 1000 -c 2 -i 20 -a 2 -x {1.0 3.1 20 ------- null}
- -t 0.274 -s 2 -d 3 -p cbr -e 1000 -c 2 -i 20 -a 2 -x {1.0 3.1 20 ------- null}
h -t 0.274 -s 2 -d 3 -p cbr -e 1000 -c 2 -i 20 -a 2 -x {1.0 3.1 -1 ------- null}
+ -t 0.276 -s 1 -d 2 -p cbr -e 1000 -c 2 -i 22 -a 2 -x {1.0 3.1 22 ------- null}
- -t 0.276 -s 1 -d 2 -p cbr -e 1000 -c 2 -i 22 -a 2 -x {1.0 3.1 22 ------- null}
h -t 0.276 -s 1 -d 2 -p cbr -e 1000 -c 2 -i 22 -a 2 -x {1.0 3.1 -1 ------- null}
r -t 0.282 -s 2 -d 3 -p cbr -e 1000 -c 2 -i 18 -a 2 -x {1.0 3.1 18 ------- null}
r -t 0.282 -s 1 -d 2 -p cbr -e 1000 -c 2 -i 21 -a 2 -x {1.0 3.1 21 ------- null}
+ -t 0.282 -s 2 -d 3 -p cbr -e 1000 -c 2 -i 21 -a 2 -x {1.0 3.1 21 ------- null}
- -t 0.282 -s 2 -d 3 -p cbr -e 1000 -c 2 -i 21 -a 2 -x {1.0 3.1 21 ------- null}
h -t 0.282 -s 2 -d 3 -p cbr -e 1000 -c 2 -i 21 -a 2 -x {1.0 3.1 -1 ------- null}
+ -t 0.284 -s 1 -d 2 -p cbr -e 1000 -c 2 -i 23 -a 2 -x {1.0 3.1 23 ------- null}
- -t 0.284 -s 1 -d 2 -p cbr -e 1000 -c 2 -i 23 -a 2 -x {1.0 3.1 23 ------- null}
h -t 0.284 -s 1 -d 2 -p cbr -e 1000 -c 2 -i 23 -a 2 -x {1.0 3.1 -1 ------- null}
r -t 0.29 -s 2 -d 3 -p cbr -e 1000 -c 2 -i 19 -a 2 -x {1.0 3.1 19 ------- null}
r -t 0.29 -s 1 -d 2 -p cbr -e 1000 -c 2 -i 22 -a 2 -x {1.0 3.1 22 ------- null}
+ -t 0.29 -s 2 -d 3 -p cbr -e 1000 -c 2 -i 22 -a 2 -x {1.0 3.1 22 ------- null}
- -t 0.29 -s 2 -d 3 -p cbr -e 1000 -c 2 -i 22 -a 2 -x {1.0 3.1 22 ------- null}
h -t 0.29 -s 2 -d 3 -p cbr -e 1000 -c 2 -i 22 -a 2 -x {1.0 3.1 -1 ------- null}
+ -t 0.292 -s 1 -d 2 -p cbr -e 1000 -c 2 -i 24 -a 2 -x {1.0 3.1 24 ------- null}
- -t 0.292 -s 1 -d 2 -p cbr -e 1000 -c 2 -i 24 -a 2 -x {1.0 3.1 24 ------- null}
h -t 0.292 -s 1 -d 2 -p cbr -e 1000 -c 2 -i 24 -a 2 -x {1.0 3.1 -1 ------- null}
r -t 0.298 -s 2 -d 3 -p cbr -e 1000 -c 2 -i 20 -a 2 -x {1.0 3.1 20 ------- null}
r -t 0.298 -s 1 -d 2 -p cbr -e 1000 -c 2 -i 23 -a 2 -x {1.0 3.1 23 ------- null}
+ -t 0.298 -s 2 -d 3 -p cbr -e 1000 -c 2 -i 23 -a 2 -x {1.0 3.1 23 ------- null}
- -t 0.298 -s 2 -d 3 -p cbr -e 1000 -c 2 -i 23 -a 2 -x {1.0 3.1 23 ------- null}
h -t 0.298 -s 2 -d 3 -p cbr -e 1000 -c 2 -i 23 -a 2 -x {1.0 3.1 -1 ------- null}
+ -t 0.3 -s 1 -d 2 -p cbr -e 1000 -c 2 -i 25 -a 2 -x {1.0 3.1 25 ------- null}
- -t 0.3 -s 1 -d 2 -p cbr -e 1000 -c 2 -i 25 -a 2 -x {1.0 3.1 25 ------- null}
h -t 0.3 -s 1 -d 2 -p cbr -e 1000 -c 2 -i 25 -a 2 -x {1.0 3.1 -1 ------- null}
r -t 0.306 -s 2 -d 3 -p cbr -e 1000 -c 2 -i 21 -a 2 -x {1.0 3.1 21 ------- null}
r -t 0.306 -s 1 -d 2 -p cbr -e 1000 -c 2 -i 24 -a 2 -x {1.0 3.1 24 ------- null}
+ -t 0.306 -s 2 -d 3 -p cbr -e 1000 -c 2 -i 24 -a 2 -x {1.0 3.1 24 ------- null}
- -t 0.306 -s 2 -d 3 -p cbr -e 1000 -c 2 -i 24 -a 2 -x {1.0 3.1 24 ------- null}
h -t 0.306 -s 2 -d 3 -p cbr -e 1000 -c 2 -i 24 -a 2 -x {1.0 3.1 -1 ------- null}
+ -t 0.308 -s 1 -d 2 -p cbr -e 1000 -c 2 -i 26 -a 2 -x {1.0 3.1 26 ------- null}
- -t 0.308 -s 1 -d 2 -p cbr -e 1000 -c 2 -i 26 -a 2 -x {1.0 3.1 26 ------- null}
h -t 0.308 -s 1 -d 2 -p cbr -e 1000 -c 2 -i 26 -a 2 -x {1.0 3.1 -1 ------- null}
r -t 0.314 -s 2 -d 3 -p cbr -e 1000 -c 2 -i 22 -a 2 -x {1.0 3.1 22 ------- null}
r -t 0.314 -s 1 -d 2 -p cbr -e 1000 -c 2 -i 25 -a 2 -x {1.0 3.1 25 ------- null}
+ -t 0.314 -s 2 -d 3 -p cbr -e 1000 -c 2 -i 25 -a 2 -x {1.0 3.1 25 ------- null}
- -t 0.314 -s 2 -d 3 -p cbr -e 1000 -c 2 -i 25 -a 2 -x {1.0 3.1 25 ------- null}
h -t 0.314 -s 2 -d 3 -p cbr -e 1000 -c 2 -i 25 -a 2 -x {1.0 3.1 -1 ------- null}
+ -t 0.316 -s 1 -d 2 -p cbr -e 1000 -c 2 -i 27 -a 2 -x {1.0 3.1 27 ------- null}
- -t 0.316 -s 1 -d 2 -p cbr -e 1000 -c 2 -i 27 -a 2 -x {1.0 3.1 27 ------- null}
h -t 0.316 -s 1 -d 2 -p cbr -e 1000 -c 2 -i 27 -a 2 -x {1.0 3.1 -1 ------- null}
r -t 0.322 -s 2 -d 3 -p cbr -e 1000 -c 2 -i 23 -a 2 -x {1.0 3.1 23 ------- null}
r -t 0.322 -s 1 -d 2 -p cbr -e 1000 -c 2 -i 26 -a 2 -x {1.0 3.1 26 ------- null}
+ -t 0.322 -s 2 -d 3 -p cbr -e 1000 -c 2 -i 26 -a 2 -x {1.0 3.1 26 ------- null}
- -t 0.322 -s 2 -d 3 -p cbr -e 1000 -c 2 -i 26 -a 2 -x {1.0 3.1 26 ------- null}
h -t 0.322 -s 2 -d 3 -p cbr -e 1000 -c 2 -i 26 -a 2 -x {1.0 3.1 -1 ------- null}
+ -t 0.324 -s 1 -d 2 -p cbr -e 1000 -c 2 -i 28 -a 2 -x {1.0 3.1 28 ------- null}
- -t 0.324 -s 1 -d 2 -p cbr -e 1000 -c 2 -i 28 -a 2 -x {1.0 3.1 28 ------- null}
h -t 0.324 -s 1 -d 2 -p cbr -e 1000 -c 2 -i 28 -a 2 -x {1.0 3.1 -1 ------- null}
r -t 0.33 -s 2 -d 3 -p cbr -e 1000 -c 2 -i 24 -a 2 -x {1.0 3.1 24 ------- null}
r -t 0.33 -s 1 -d 2 -p cbr -e 1000 -c 2 -i 27 -a 2 -x {1.0 3.1 27 ------- null}
+ -t 0.33 -s 2 -d 3 -p cbr -e 1000 -c 2 -i 27 -a 2 -x {1.0 3.1 27 ------- null}
- -t 0.33 -s 2 -d 3 -p cbr -e 1000 -c 2 -i 27 -a 2 -x {1.0 3.1 27 ------- null}
h -t 0.33 -s 2 -d 3 -p cbr -e 1000 -c 2 -i 27 -a 2 -x {1.0 3.1 -1 ------- null}
+ -t 0.332 -s 1 -d 2 -p cbr -e 1000 -c 2 -i 29 -a 2 -x {1.0 3.1 29 ------- null}
- -t 0.332 -s 1 -d 2 -p cbr -e 1000 -c 2 -i 29 -a 2 -x {1.0 3.1 29 ------- null}
h -t 0.332 -s 1 -d 2 -p cbr -e 1000 -c 2 -i 29 -a 2 -x {1.0 3.1 -1 ------- null}
r -t 0.338 -s 2 -d 3 -p cbr -e 1000 -c 2 -i 25 -a 2 -x {1.0 3.1 25 ------- null}
r -t 0.338 -s 1 -d 2 -p cbr -e 1000 -c 2 -i 28 -a 2 -x {1.0 3.1 28 ------- null}
+ -t 0.338 -s 2 -d 3 -p cbr -e 1000 -c 2 -i 28 -a 2 -x {1.0 3.1 28 ------- null}
- -t 0.338 -s 2 -d 3 -p cbr -e 1000 -c 2 -i 28 -a 2 -x {1.0 3.1 28 ------- null}
h -t 0.338 -s 2 -d 3 -p cbr -e 1000 -c 2 -i 28 -a 2 -x {1.0 3.1 -1 ------- null}
+ -t 0.34 -s 1 -d 2 -p cbr -e 1000 -c 2 -i 30 -a 2 -x {1.0 3.1 30 ------- null}
- -t 0.34 -s 1 -d 2 -p cbr -e 1000 -c 2 -i 30 -a 2 -x {1.0 3.1 30 ------- null}
h -t 0.34 -s 1 -d 2 -p cbr -e 1000 -c 2 -i 30 -a 2 -x {1.0 3.1 -1 ------- null}
r -t 0.346 -s 2 -d 3 -p cbr -e 1000 -c 2 -i 26 -a 2 -x {1.0 3.1 26 ------- null}
r -t 0.346 -s 1 -d 2 -p cbr -e 1000 -c 2 -i 29 -a 2 -x {1.0 3.1 29 ------- null}
+ -t 0.346 -s 2 -d 3 -p cbr -e 1000 -c 2 -i 29 -a 2 -x {1.0 3.1 29 ------- null}
- -t 0.346 -s 2 -d 3 -p cbr -e 1000 -c 2 -i 29 -a 2 -x {1.0 3.1 29 ------- null}
h -t 0.346 -s 2 -d 3 -p cbr -e 1000 -c 2 -i 29 -a 2 -x {1.0 3.1 -1 ------- null}
+ -t 0.348 -s 1 -d 2 -p cbr -e 1000 -c 2 -i 31 -a 2 -x {1.0 3.1 31 ------- null}
- -t 0.348 -s 1 -d 2 -p cbr -e 1000 -c 2 -i 31 -a 2 -x {1.0 3.1 31 ------- null}
h -t 0.348 -s 1 -d 2 -p cbr -e 1000 -c 2 -i 31 -a 2 -x {1.0 3.1 -1 ------- null}
r -t 0.354 -s 2 -d 3 -p cbr -e 1000 -c 2 -i 27 -a 2 -x {1.0 3.1 27 ------- null}
r -t 0.354 -s 1 -d 2 -p cbr -e 1000 -c 2 -i 30 -a 2 -x {1.0 3.1 30 ------- null}
+ -t 0.354 -s 2 -d 3 -p cbr -e 1000 -c 2 -i 30 -a 2 -x {1.0 3.1 30 ------- null}
- -t 0.354 -s 2 -d 3 -p cbr -e 1000 -c 2 -i 30 -a 2 -x {1.0 3.1 30 ------- null}
h -t 0.354 -s 2 -d 3 -p cbr -e 1000 -c 2 -i 30 -a 2 -x {1.0 3.1 -1 ------- null}
+ -t 0.356 -s 1 -d 2 -p cbr -e 1000 -c 2 -i 32 -a 2 -x {1.0 3.1 32 ------- null}
- -t 0.356 -s 1 -d 2 -p cbr -e 1000 -c 2 -i 32 -a 2 -x {1.0 3.1 32 ------- null}
h -t 0.356 -s 1 -d 2 -p cbr -e 1000 -c 2 -i 32 -a 2 -x {1.0 3.1 -1 ------- null}
r -t 0.362 -s 2 -d 3 -p cbr -e 1000 -c 2 -i 28 -a 2 -x {1.0 3.1 28 ------- null}
r -t 0.362 -s 1 -d 2 -p cbr -e 1000 -c 2 -i 31 -a 2 -x {1.0 3.1 31 ------- null}
+ -t 0.362 -s 2 -d 3 -p cbr -e 1000 -c 2 -i 31 -a 2 -x {1.0 3.1 31 ------- null}
- -t 0.362 -s 2 -d 3 -p cbr -e 1000 -c 2 -i 31 -a 2 -x {1.0 3.1 31 ------- null}
h -t 0.362 -s 2 -d 3 -p cbr -e 1000 -c 2 -i 31 -a 2 -x {1.0 3.1 -1 ------- null}
+ -t 0.364 -s 1 -d 2 -p cbr -e 1000 -c 2 -i 33 -a 2 -x {1.0 3.1 33 ------- null}
- -t 0.364 -s 1 -d 2 -p cbr -e 1000 -c 2 -i 33 -a 2 -x {1.0 3.1 33 ------- null}
h -t 0.364 -s 1 -d 2 -p cbr -e 1000 -c 2 -i 33 -a 2 -x {1.0 3.1 -1 ------- null}
r -t 0.37 -s 2 -d 3 -p cbr -e 1000 -c 2 -i 29 -a 2 -x {1.0 3.1 29 ------- null}
r -t 0.37 -s 1 -d 2 -p cbr -e 1000 -c 2 -i 32 -a 2 -x {1.0 3.1 32 ------- null}
+ -t 0.37 -s 2 -d 3 -p cbr -e 1000 -c 2 -i 32 -a 2 -x {1.0 3.1 32 ------- null}
- -t 0.37 -s 2 -d 3 -p cbr -e 1000 -c 2 -i 32 -a 2 -x {1.0 3.1 32 ------- null}
h -t 0.37 -s 2 -d 3 -p cbr -e 1000 -c 2 -i 32 -a 2 -x {1.0 3.1 -1 ------- null}
+ -t 0.372 -s 1 -d 2 -p cbr -e 1000 -c 2 -i 34 -a 2 -x {1.0 3.1 34 ------- null}
- -t 0.372 -s 1 -d 2 -p cbr -e 1000 -c 2 -i 34 -a 2 -x {1.0 3.1 34 ------- null}
h -t 0.372 -s 1 -d 2 -p cbr -e 1000 -c 2 -i 34 -a 2 -x {1.0 3.1 -1 ------- null}
r -t 0.378 -s 2 -d 3 -p cbr -e 1000 -c 2 -i 30 -a 2 -x {1.0 3.1 30 ------- null}
r -t 0.378 -s 1 -d 2 -p cbr -e 1000 -c 2 -i 33 -a 2 -x {1.0 3.1 33 ------- null}
+ -t 0.378 -s 2 -d 3 -p cbr -e 1000 -c 2 -i 33 -a 2 -x {1.0 3.1 33 ------- null}
- -t 0.378 -s 2 -d 3 -p cbr -e 1000 -c 2 -i 33 -a 2 -x {1.0 3.1 33 ------- null}
h -t 0.378 -s 2 -d 3 -p cbr -e 1000 -c 2 -i 33 -a 2 -x {1.0 3.1 -1 ------- null}
+ -t 0.38 -s 1 -d 2 -p cbr -e 1000 -c 2 -i 35 -a 2 -x {1.0 3.1 35 ------- null}
- -t 0.38 -s 1 -d 2 -p cbr -e 1000 -c 2 -i 35 -a 2 -x {1.0 3.1 35 ------- null}
h -t 0.38 -s 1 -d 2 -p cbr -e 1000 -c 2 -i 35 -a 2 -x {1.0 3.1 -1 ------- null}
r -t 0.386 -s 2 -d 3 -p cbr -e 1000 -c 2 -i 31 -a 2 -x {1.0 3.1 31 ------- null}
r -t 0.386 -s 1 -d 2 -p cbr -e 1000 -c 2 -i 34 -a 2 -x {1.0 3.1 34 ------- null}
+ -t 0.386 -s 2 -d 3 -p cbr -e 1000 -c 2 -i 34 -a 2 -x {1.0 3.1 34 ------- null}
- -t 0.386 -s 2 -d 3 -p cbr -e 1000 -c 2 -i 34 -a 2 -x {1.0 3.1 34 ------- null}
h -t 0.386 -s 2 -d 3 -p cbr -e 1000 -c 2 -i 34 -a 2 -x {1.0 3.1 -1 ------- null}
+ -t 0.388 -s 1 -d 2 -p cbr -e 1000 -c 2 -i 36 -a 2 -x {1.0 3.1 36 ------- null}
- -t 0.388 -s 1 -d 2 -p cbr -e 1000 -c 2 -i 36 -a 2 -x {1.0 3.1 36 ------- null}
h -t 0.388 -s 1 -d 2 -p cbr -e 1000 -c 2 -i 36 -a 2 -x {1.0 3.1 -1 ------- null}
r -t 0.394 -s 2 -d 3 -p cbr -e 1000 -c 2 -i 32 -a 2 -x {1.0 3.1 32 ------- null}
r -t 0.394 -s 1 -d 2 -p cbr -e 1000 -c 2 -i 35 -a 2 -x {1.0 3.1 35 ------- null}
+ -t 0.394 -s 2 -d 3 -p cbr -e 1000 -c 2 -i 35 -a 2 -x {1.0 3.1 35 ------- null}
- -t 0.394 -s 2 -d 3 -p cbr -e 1000 -c 2 -i 35 -a 2 -x {1.0 3.1 35 ------- null}
h -t 0.394 -s 2 -d 3 -p cbr -e 1000 -c 2 -i 35 -a 2 -x {1.0 3.1 -1 ------- null}
+ -t 0.396 -s 1 -d 2 -p cbr -e 1000 -c 2 -i 37 -a 2 -x {1.0 3.1 37 ------- null}
- -t 0.396 -s 1 -d 2 -p cbr -e 1000 -c 2 -i 37 -a 2 -x {1.0 3.1 37 ------- null}
h -t 0.396 -s 1 -d 2 -p cbr -e 1000 -c 2 -i 37 -a 2 -x {1.0 3.1 -1 ------- null}
r -t 0.402 -s 2 -d 3 -p cbr -e 1000 -c 2 -i 33 -a 2 -x {1.0 3.1 33 ------- null}
r -t 0.402 -s 1 -d 2 -p cbr -e 1000 -c 2 -i 36 -a 2 -x {1.0 3.1 36 ------- null}
+ -t 0.402 -s 2 -d 3 -p cbr -e 1000 -c 2 -i 36 -a 2 -x {1.0 3.1 36 ------- null}
- -t 0.402 -s 2 -d 3 -p cbr -e 1000 -c 2 -i 36 -a 2 -x {1.0 3.1 36 ------- null}
h -t 0.402 -s 2 -d 3 -p cbr -e 1000 -c 2 -i 36 -a 2 -x {1.0 3.1 -1 ------- null}
+ -t 0.404 -s 1 -d 2 -p cbr -e 1000 -c 2 -i 38 -a 2 -x {1.0 3.1 38 ------- null}
- -t 0.404 -s 1 -d 2 -p cbr -e 1000 -c 2 -i 38 -a 2 -x {1.0 3.1 38 ------- null}
h -t 0.404 -s 1 -d 2 -p cbr -e 1000 -c 2 -i 38 -a 2 -x {1.0 3.1 -1 ------- null}
r -t 0.41 -s 2 -d 3 -p cbr -e 1000 -c 2 -i 34 -a 2 -x {1.0 3.1 34 ------- null}
r -t 0.41 -s 1 -d 2 -p cbr -e 1000 -c 2 -i 37 -a 2 -x {1.0 3.1 37 ------- null}
+ -t 0.41 -s 2 -d 3 -p cbr -e 1000 -c 2 -i 37 -a 2 -x {1.0 3.1 37 ------- null}
- -t 0.41 -s 2 -d 3 -p cbr -e 1000 -c 2 -i 37 -a 2 -x {1.0 3.1 37 ------- null}
h -t 0.41 -s 2 -d 3 -p cbr -e 1000 -c 2 -i 37 -a 2 -x {1.0 3.1 -1 ------- null}
+ -t 0.412 -s 1 -d 2 -p cbr -e 1000 -c 2 -i 39 -a 2 -x {1.0 3.1 39 ------- null}
- -t 0.412 -s 1 -d 2 -p cbr -e 1000 -c 2 -i 39 -a 2 -x {1.0 3.1 39 ------- null}
h -t 0.412 -s 1 -d 2 -p cbr -e 1000 -c 2 -i 39 -a 2 -x {1.0 3.1 -1 ------- null}
r -t 0.418 -s 2 -d 3 -p cbr -e 1000 -c 2 -i 35 -a 2 -x {1.0 3.1 35 ------- null}
r -t 0.418 -s 1 -d 2 -p cbr -e 1000 -c 2 -i 38 -a 2 -x {1.0 3.1 38 ------- null}
+ -t 0.418 -s 2 -d 3 -p cbr -e 1000 -c 2 -i 38 -a 2 -x {1.0 3.1 38 ------- null}
- -t 0.418 -s 2 -d 3 -p cbr -e 1000 -c 2 -i 38 -a 2 -x {1.0 3.1 38 ------- null}
h -t 0.418 -s 2 -d 3 -p cbr -e 1000 -c 2 -i 38 -a 2 -x {1.0 3.1 -1 ------- null}
+ -t 0.42 -s 1 -d 2 -p cbr -e 1000 -c 2 -i 40 -a 2 -x {1.0 3.1 40 ------- null}
- -t 0.42 -s 1 -d 2 -p cbr -e 1000 -c 2 -i 40 -a 2 -x {1.0 3.1 40 ------- null}
h -t 0.42 -s 1 -d 2 -p cbr -e 1000 -c 2 -i 40 -a 2 -x {1.0 3.1 -1 ------- null}
r -t 0.426 -s 2 -d 3 -p cbr -e 1000 -c 2 -i 36 -a 2 -x {1.0 3.1 36 ------- null}
r -t 0.426 -s 1 -d 2 -p cbr -e 1000 -c 2 -i 39 -a 2 -x {1.0 3.1 39 ------- null}
+ -t 0.426 -s 2 -d 3 -p cbr -e 1000 -c 2 -i 39 -a 2 -x {1.0 3.1 39 ------- null}
- -t 0.426 -s 2 -d 3 -p cbr -e 1000 -c 2 -i 39 -a 2 -x {1.0 3.1 39 ------- null}
h -t 0.426 -s 2 -d 3 -p cbr -e 1000 -c 2 -i 39 -a 2 -x {1.0 3.1 -1 ------- null}
+ -t 0.428 -s 1 -d 2 -p cbr -e 1000 -c 2 -i 41 -a 2 -x {1.0 3.1 41 ------- null}
- -t 0.428 -s 1 -d 2 -p cbr -e 1000 -c 2 -i 41 -a 2 -x {1.0 3.1 41 ------- null}
h -t 0.428 -s 1 -d 2 -p cbr -e 1000 -c 2 -i 41 -a 2 -x {1.0 3.1 -1 ------- null}
r -t 0.434 -s 2 -d 3 -p cbr -e 1000 -c 2 -i 37 -a 2 -x {1.0 3.1 37 ------- null}
r -t 0.434 -s 1 -d 2 -p cbr -e 1000 -c 2 -i 40 -a 2 -x {1.0 3.1 40 ------- null}
+ -t 0.434 -s 2 -d 3 -p cbr -e 1000 -c 2 -i 40 -a 2 -x {1.0 3.1 40 ------- null}
- -t 0.434 -s 2 -d 3 -p cbr -e 1000 -c 2 -i 40 -a 2 -x {1.0 3.1 40 ------- null}
h -t 0.434 -s 2 -d 3 -p cbr -e 1000 -c 2 -i 40 -a 2 -x {1.0 3.1 -1 ------- null}
+ -t 0.436 -s 1 -d 2 -p cbr -e 1000 -c 2 -i 42 -a 2 -x {1.0 3.1 42 ------- null}
- -t 0.436 -s 1 -d 2 -p cbr -e 1000 -c 2 -i 42 -a 2 -x {1.0 3.1 42 ------- null}
h -t 0.436 -s 1 -d 2 -p cbr -e 1000 -c 2 -i 42 -a 2 -x {1.0 3.1 -1 ------- null}
r -t 0.442 -s 2 -d 3 -p cbr -e 1000 -c 2 -i 38 -a 2 -x {1.0 3.1 38 ------- null}
r -t 0.442 -s 1 -d 2 -p cbr -e 1000 -c 2 -i 41 -a 2 -x {1.0 3.1 41 ------- null}
+ -t 0.442 -s 2 -d 3 -p cbr -e 1000 -c 2 -i 41 -a 2 -x {1.0 3.1 41 ------- null}
- -t 0.442 -s 2 -d 3 -p cbr -e 1000 -c 2 -i 41 -a 2 -x {1.0 3.1 41 ------- null}
h -t 0.442 -s 2 -d 3 -p cbr -e 1000 -c 2 -i 41 -a 2 -x {1.0 3.1 -1 ------- null}
+ -t 0.444 -s 1 -d 2 -p cbr -e 1000 -c 2 -i 43 -a 2 -x {1.0 3.1 43 ------- null}
- -t 0.444 -s 1 -d 2 -p cbr -e 1000 -c 2 -i 43 -a 2 -x {1.0 3.1 43 ------- null}
h -t 0.444 -s 1 -d 2 -p cbr -e 1000 -c 2 -i 43 -a 2 -x {1.0 3.1 -1 ------- null}
r -t 0.45 -s 2 -d 3 -p cbr -e 1000 -c 2 -i 39 -a 2 -x {1.0 3.1 39 ------- null}
r -t 0.45 -s 1 -d 2 -p cbr -e 1000 -c 2 -i 42 -a 2 -x {1.0 3.1 42 ------- null}
+ -t 0.45 -s 2 -d 3 -p cbr -e 1000 -c 2 -i 42 -a 2 -x {1.0 3.1 42 ------- null}
- -t 0.45 -s 2 -d 3 -p cbr -e 1000 -c 2 -i 42 -a 2 -x {1.0 3.1 42 ------- null}
h -t 0.45 -s 2 -d 3 -p cbr -e 1000 -c 2 -i 42 -a 2 -x {1.0 3.1 -1 ------- null}
+ -t 0.452 -s 1 -d 2 -p cbr -e 1000 -c 2 -i 44 -a 2 -x {1.0 3.1 44 ------- null}
- -t 0.452 -s 1 -d 2 -p cbr -e 1000 -c 2 -i 44 -a 2 -x {1.0 3.1 44 ------- null}
h -t 0.452 -s 1 -d 2 -p cbr -e 1000 -c 2 -i 44 -a 2 -x {1.0 3.1 -1 ------- null}
r -t 0.458 -s 2 -d 3 -p cbr -e 1000 -c 2 -i 40 -a 2 -x {1.0 3.1 40 ------- null}
r -t 0.458 -s 1 -d 2 -p cbr -e 1000 -c 2 -i 43 -a 2 -x {1.0 3.1 43 ------- null}
+ -t 0.458 -s 2 -d 3 -p cbr -e 1000 -c 2 -i 43 -a 2 -x {1.0 3.1 43 ------- null}
- -t 0.458 -s 2 -d 3 -p cbr -e 1000 -c 2 -i 43 -a 2 -x {1.0 3.1 43 ------- null}
h -t 0.458 -s 2 -d 3 -p cbr -e 1000 -c 2 -i 43 -a 2 -x {1.0 3.1 -1 ------- null}
+ -t 0.46 -s 1 -d 2 -p cbr -e 1000 -c 2 -i 45 -a 2 -x {1.0 3.1 45 ------- null}
- -t 0.46 -s 1 -d 2 -p cbr -e 1000 -c 2 -i 45 -a 2 -x {1.0 3.1 45 ------- null}
h -t 0.46 -s 1 -d 2 -p cbr -e 1000 -c 2 -i 45 -a 2 -x {1.0 3.1 -1 ------- null}
r -t 0.466 -s 2 -d 3 -p cbr -e 1000 -c 2 -i 41 -a 2 -x {1.0 3.1 41 ------- null}
r -t 0.466 -s 1 -d 2 -p cbr -e 1000 -c 2 -i 44 -a 2 -x {1.0 3.1 44 ------- null}
+ -t 0.466 -s 2 -d 3 -p cbr -e 1000 -c 2 -i 44 -a 2 -x {1.0 3.1 44 ------- null}
- -t 0.466 -s 2 -d 3 -p cbr -e 1000 -c 2 -i 44 -a 2 -x {1.0 3.1 44 ------- null}
h -t 0.466 -s 2 -d 3 -p cbr -e 1000 -c 2 -i 44 -a 2 -x {1.0 3.1 -1 ------- null}
+ -t 0.468 -s 1 -d 2 -p cbr -e 1000 -c 2 -i 46 -a 2 -x {1.0 3.1 46 ------- null}
- -t 0.468 -s 1 -d 2 -p cbr -e 1000 -c 2 -i 46 -a 2 -x {1.0 3.1 46 ------- null}
h -t 0.468 -s 1 -d 2 -p cbr -e 1000 -c 2 -i 46 -a 2 -x {1.0 3.1 -1 ------- null}
r -t 0.474 -s 2 -d 3 -p cbr -e 1000 -c 2 -i 42 -a 2 -x {1.0 3.1 42 ------- null}
r -t 0.474 -s 1 -d 2 -p cbr -e 1000 -c 2 -i 45 -a 2 -x {1.0 3.1 45 ------- null}
+ -t 0.474 -s 2 -d 3 -p cbr -e 1000 -c 2 -i 45 -a 2 -x {1.0 3.1 45 ------- null}